# vtk DataFile Version 3.0
MOAB 4.6.0pre
ASCII
DATASET UNSTRUCTURED_GRID
POINTS 16 double
-8 -20 -8
8 -20 -8
-8 -5 -8
8 -5 -8
-8 5 -8
8 5 -8
-8 20 -8
8 20 -8
-8 -20 8
8 -20 8
-8 -5 8
8 -5 8
-8 5 8
8 5 8
-8 20 8
8 20 8
CELLS 3 27
8 0 1 3 2 8 9 11 10
8 2 3 5 4 10 11 13 12
8 4 5 7 6 12 13 15 14
CELL_TYPES 3
12
12
12
CELL_DATA 3
SCALARS mat1_rho-2.35 double 1
LOOKUP_TABLE default
0 
0 
1 
SCALARS mat1_rho-2.35_err double 1
LOOKUP_TABLE default
0 
0 
0 
SCALARS mat2_rho-1.0 double 1
LOOKUP_TABLE default
0 
1 
0 
SCALARS mat2_rho-1.0_err double 1
LOOKUP_TABLE default
0 
0 
0 
SCALARS matVOID double 1
LOOKUP_TABLE default
1 
1.480297366e-18 
1.291559452e-17 
SCALARS matVOID_err double 1
LOOKUP_TABLE default
0 
6.870504321e-19 
2.184482728e-18 
SCALARS PHTN_BIAS double 1
LOOKUP_TABLE default
1.0
2.0
3.0
SCALARS n_group_total double 1
LOOKUP_TABLE default
0.000578977 
0.00396511 
0.000688061 
SCALARS n_group_total_error double 1
LOOKUP_TABLE default
0.000641166 
0.000206355 
0.000799913 
SCALARS phtn_src_group_001 double 1
LOOKUP_TABLE default
0 
0 
0 
SCALARS phtn_src_group_002 double 1
LOOKUP_TABLE default
0 
0 
0 
SCALARS phtn_src_group_003 double 1
LOOKUP_TABLE default
0 
0 
0 
SCALARS phtn_src_group_004 double 1
LOOKUP_TABLE default
0 
0 
0 
SCALARS phtn_src_group_005 double 1
LOOKUP_TABLE default
0 
0 
0 
SCALARS phtn_src_group_006 double 1
LOOKUP_TABLE default
0 
0 
0 
SCALARS phtn_src_group_007 double 1
LOOKUP_TABLE default
0 
0 
0 
SCALARS phtn_src_group_008 double 1
LOOKUP_TABLE default
0 
0 
0 
SCALARS phtn_src_group_009 double 1
LOOKUP_TABLE default
140.783 
26.6742 
140.783 
SCALARS phtn_src_group_010 double 1
LOOKUP_TABLE default
4495.66 
9126.78 
4495.66 
SCALARS phtn_src_group_011 double 1
LOOKUP_TABLE default
0 
0 
0 
SCALARS phtn_src_group_012 double 1
LOOKUP_TABLE default
0 
2350.05 
0 
SCALARS phtn_src_group_013 double 1
LOOKUP_TABLE default
0 
0 
0 
SCALARS phtn_src_group_014 double 1
LOOKUP_TABLE default
0 
0 
0 
SCALARS phtn_src_group_015 double 1
LOOKUP_TABLE default
0 
0 
0 
SCALARS phtn_src_group_016 double 1
LOOKUP_TABLE default
0 
0 
0 
SCALARS phtn_src_group_017 double 1
LOOKUP_TABLE default
0 
0 
0 
SCALARS phtn_src_group_018 double 1
LOOKUP_TABLE default
0 
8828.09 
0 
SCALARS phtn_src_group_019 double 1
LOOKUP_TABLE default
25344.5 
746420 
25344.5 
SCALARS phtn_src_group_020 double 1
LOOKUP_TABLE default
0 
5261990 
0 
SCALARS phtn_src_group_021 double 1
LOOKUP_TABLE default
0 
6760.47 
0 
SCALARS phtn_src_group_022 double 1
LOOKUP_TABLE default
2679.56 
507.7 
2679.56 
SCALARS phtn_src_group_023 double 1
LOOKUP_TABLE default
5928.31 
3596.29 
5928.31 
SCALARS phtn_src_group_024 double 1
LOOKUP_TABLE default
682339 
141022000 
682339 
SCALARS phtn_src_group_025 double 1
LOOKUP_TABLE default
4414.54 
1240230 
4414.54 
SCALARS phtn_src_group_026 double 1
LOOKUP_TABLE default
2978180 
565553 
2978180 
SCALARS phtn_src_group_027 double 1
LOOKUP_TABLE default
0 
434428 
0 
SCALARS phtn_src_group_028 double 1
LOOKUP_TABLE default
0 
0 
0 
SCALARS phtn_src_group_029 double 1
LOOKUP_TABLE default
6.10057 
1.15588 
6.10057 
SCALARS phtn_src_group_030 double 1
LOOKUP_TABLE default
0 
0 
0 
SCALARS phtn_src_group_031 double 1
LOOKUP_TABLE default
124863 
20900.6 
124863 
SCALARS phtn_src_group_032 double 1
LOOKUP_TABLE default
0 
0 
0 
SCALARS phtn_src_group_033 double 1
LOOKUP_TABLE default
269997000 
41882600 
269997000 
SCALARS phtn_src_group_034 double 1
LOOKUP_TABLE default
164346 
25493.7 
164346 
SCALARS phtn_src_group_035 double 1
LOOKUP_TABLE default
19565000 
3034970 
19565000 
SCALARS phtn_src_group_036 double 1
LOOKUP_TABLE default
0 
0 
0 
SCALARS phtn_src_group_037 double 1
LOOKUP_TABLE default
274035 
42510.5 
274035 
SCALARS phtn_src_group_038 double 1
LOOKUP_TABLE default
0 
0 
0 
SCALARS phtn_src_group_039 double 1
LOOKUP_TABLE default
0 
0 
0 
SCALARS phtn_src_group_040 double 1
LOOKUP_TABLE default
0 
0 
0 
SCALARS phtn_src_group_041 double 1
LOOKUP_TABLE default
0 
0 
0 
SCALARS phtn_src_group_042 double 1
LOOKUP_TABLE default
0 
0 
0 
SCALARS phtn_src_total double 1
LOOKUP_TABLE default
293828772.5 
194308293 
293828772.5 
