# vtk DataFile Version 3.0
MOAB 4.1.0pre
ASCII
DATASET UNSTRUCTURED_GRID
POINTS 729 double
-5 -5 -5
-5 -5 -3.75
-5 -5 -2.5
-5 -5 -1.25
-5 -5 0
-5 -5 1.25
-5 -5 2.5
-5 -5 3.75
-5 -5 5
-5 -3.75 -5
-5 -3.75 -3.75
-5 -3.75 -2.5
-5 -3.75 -1.25
-5 -3.75 0
-5 -3.75 1.25
-5 -3.75 2.5
-5 -3.75 3.75
-5 -3.75 5
-5 -2.5 -5
-5 -2.5 -3.75
-5 -2.5 -2.5
-5 -2.5 -1.25
-5 -2.5 0
-5 -2.5 1.25
-5 -2.5 2.5
-5 -2.5 3.75
-5 -2.5 5
-5 -1.25 -5
-5 -1.25 -3.75
-5 -1.25 -2.5
-5 -1.25 -1.25
-5 -1.25 0
-5 -1.25 1.25
-5 -1.25 2.5
-5 -1.25 3.75
-5 -1.25 5
-5 0 -5
-5 0 -3.75
-5 0 -2.5
-5 0 -1.25
-5 0 0
-5 0 1.25
-5 0 2.5
-5 0 3.75
-5 0 5
-5 1.25 -5
-5 1.25 -3.75
-5 1.25 -2.5
-5 1.25 -1.25
-5 1.25 0
-5 1.25 1.25
-5 1.25 2.5
-5 1.25 3.75
-5 1.25 5
-5 2.5 -5
-5 2.5 -3.75
-5 2.5 -2.5
-5 2.5 -1.25
-5 2.5 0
-5 2.5 1.25
-5 2.5 2.5
-5 2.5 3.75
-5 2.5 5
-5 3.75 -5
-5 3.75 -3.75
-5 3.75 -2.5
-5 3.75 -1.25
-5 3.75 0
-5 3.75 1.25
-5 3.75 2.5
-5 3.75 3.75
-5 3.75 5
-5 5 -5
-5 5 -3.75
-5 5 -2.5
-5 5 -1.25
-5 5 0
-5 5 1.25
-5 5 2.5
-5 5 3.75
-5 5 5
-3.75 -5 -5
-3.75 -5 -3.75
-3.75 -5 -2.5
-3.75 -5 -1.25
-3.75 -5 0
-3.75 -5 1.25
-3.75 -5 2.5
-3.75 -5 3.75
-3.75 -5 5
-3.75 -3.75 -5
-3.75 -3.75 -3.75
-3.75 -3.75 -2.5
-3.75 -3.75 -1.25
-3.75 -3.75 0
-3.75 -3.75 1.25
-3.75 -3.75 2.5
-3.75 -3.75 3.75
-3.75 -3.75 5
-3.75 -2.5 -5
-3.75 -2.5 -3.75
-3.75 -2.5 -2.5
-3.75 -2.5 -1.25
-3.75 -2.5 0
-3.75 -2.5 1.25
-3.75 -2.5 2.5
-3.75 -2.5 3.75
-3.75 -2.5 5
-3.75 -1.25 -5
-3.75 -1.25 -3.75
-3.75 -1.25 -2.5
-3.75 -1.25 -1.25
-3.75 -1.25 0
-3.75 -1.25 1.25
-3.75 -1.25 2.5
-3.75 -1.25 3.75
-3.75 -1.25 5
-3.75 0 -5
-3.75 0 -3.75
-3.75 0 -2.5
-3.75 0 -1.25
-3.75 0 0
-3.75 0 1.25
-3.75 0 2.5
-3.75 0 3.75
-3.75 0 5
-3.75 1.25 -5
-3.75 1.25 -3.75
-3.75 1.25 -2.5
-3.75 1.25 -1.25
-3.75 1.25 0
-3.75 1.25 1.25
-3.75 1.25 2.5
-3.75 1.25 3.75
-3.75 1.25 5
-3.75 2.5 -5
-3.75 2.5 -3.75
-3.75 2.5 -2.5
-3.75 2.5 -1.25
-3.75 2.5 0
-3.75 2.5 1.25
-3.75 2.5 2.5
-3.75 2.5 3.75
-3.75 2.5 5
-3.75 3.75 -5
-3.75 3.75 -3.75
-3.75 3.75 -2.5
-3.75 3.75 -1.25
-3.75 3.75 0
-3.75 3.75 1.25
-3.75 3.75 2.5
-3.75 3.75 3.75
-3.75 3.75 5
-3.75 5 -5
-3.75 5 -3.75
-3.75 5 -2.5
-3.75 5 -1.25
-3.75 5 0
-3.75 5 1.25
-3.75 5 2.5
-3.75 5 3.75
-3.75 5 5
-2.5 -5 -5
-2.5 -5 -3.75
-2.5 -5 -2.5
-2.5 -5 -1.25
-2.5 -5 0
-2.5 -5 1.25
-2.5 -5 2.5
-2.5 -5 3.75
-2.5 -5 5
-2.5 -3.75 -5
-2.5 -3.75 -3.75
-2.5 -3.75 -2.5
-2.5 -3.75 -1.25
-2.5 -3.75 0
-2.5 -3.75 1.25
-2.5 -3.75 2.5
-2.5 -3.75 3.75
-2.5 -3.75 5
-2.5 -2.5 -5
-2.5 -2.5 -3.75
-2.5 -2.5 -2.5
-2.5 -2.5 -1.25
-2.5 -2.5 0
-2.5 -2.5 1.25
-2.5 -2.5 2.5
-2.5 -2.5 3.75
-2.5 -2.5 5
-2.5 -1.25 -5
-2.5 -1.25 -3.75
-2.5 -1.25 -2.5
-2.5 -1.25 -1.25
-2.5 -1.25 0
-2.5 -1.25 1.25
-2.5 -1.25 2.5
-2.5 -1.25 3.75
-2.5 -1.25 5
-2.5 0 -5
-2.5 0 -3.75
-2.5 0 -2.5
-2.5 0 -1.25
-2.5 0 0
-2.5 0 1.25
-2.5 0 2.5
-2.5 0 3.75
-2.5 0 5
-2.5 1.25 -5
-2.5 1.25 -3.75
-2.5 1.25 -2.5
-2.5 1.25 -1.25
-2.5 1.25 0
-2.5 1.25 1.25
-2.5 1.25 2.5
-2.5 1.25 3.75
-2.5 1.25 5
-2.5 2.5 -5
-2.5 2.5 -3.75
-2.5 2.5 -2.5
-2.5 2.5 -1.25
-2.5 2.5 0
-2.5 2.5 1.25
-2.5 2.5 2.5
-2.5 2.5 3.75
-2.5 2.5 5
-2.5 3.75 -5
-2.5 3.75 -3.75
-2.5 3.75 -2.5
-2.5 3.75 -1.25
-2.5 3.75 0
-2.5 3.75 1.25
-2.5 3.75 2.5
-2.5 3.75 3.75
-2.5 3.75 5
-2.5 5 -5
-2.5 5 -3.75
-2.5 5 -2.5
-2.5 5 -1.25
-2.5 5 0
-2.5 5 1.25
-2.5 5 2.5
-2.5 5 3.75
-2.5 5 5
-1.25 -5 -5
-1.25 -5 -3.75
-1.25 -5 -2.5
-1.25 -5 -1.25
-1.25 -5 0
-1.25 -5 1.25
-1.25 -5 2.5
-1.25 -5 3.75
-1.25 -5 5
-1.25 -3.75 -5
-1.25 -3.75 -3.75
-1.25 -3.75 -2.5
-1.25 -3.75 -1.25
-1.25 -3.75 0
-1.25 -3.75 1.25
-1.25 -3.75 2.5
-1.25 -3.75 3.75
-1.25 -3.75 5
-1.25 -2.5 -5
-1.25 -2.5 -3.75
-1.25 -2.5 -2.5
-1.25 -2.5 -1.25
-1.25 -2.5 0
-1.25 -2.5 1.25
-1.25 -2.5 2.5
-1.25 -2.5 3.75
-1.25 -2.5 5
-1.25 -1.25 -5
-1.25 -1.25 -3.75
-1.25 -1.25 -2.5
-1.25 -1.25 -1.25
-1.25 -1.25 0
-1.25 -1.25 1.25
-1.25 -1.25 2.5
-1.25 -1.25 3.75
-1.25 -1.25 5
-1.25 0 -5
-1.25 0 -3.75
-1.25 0 -2.5
-1.25 0 -1.25
-1.25 0 0
-1.25 0 1.25
-1.25 0 2.5
-1.25 0 3.75
-1.25 0 5
-1.25 1.25 -5
-1.25 1.25 -3.75
-1.25 1.25 -2.5
-1.25 1.25 -1.25
-1.25 1.25 0
-1.25 1.25 1.25
-1.25 1.25 2.5
-1.25 1.25 3.75
-1.25 1.25 5
-1.25 2.5 -5
-1.25 2.5 -3.75
-1.25 2.5 -2.5
-1.25 2.5 -1.25
-1.25 2.5 0
-1.25 2.5 1.25
-1.25 2.5 2.5
-1.25 2.5 3.75
-1.25 2.5 5
-1.25 3.75 -5
-1.25 3.75 -3.75
-1.25 3.75 -2.5
-1.25 3.75 -1.25
-1.25 3.75 0
-1.25 3.75 1.25
-1.25 3.75 2.5
-1.25 3.75 3.75
-1.25 3.75 5
-1.25 5 -5
-1.25 5 -3.75
-1.25 5 -2.5
-1.25 5 -1.25
-1.25 5 0
-1.25 5 1.25
-1.25 5 2.5
-1.25 5 3.75
-1.25 5 5
0 -5 -5
0 -5 -3.75
0 -5 -2.5
0 -5 -1.25
0 -5 0
0 -5 1.25
0 -5 2.5
0 -5 3.75
0 -5 5
0 -3.75 -5
0 -3.75 -3.75
0 -3.75 -2.5
0 -3.75 -1.25
0 -3.75 0
0 -3.75 1.25
0 -3.75 2.5
0 -3.75 3.75
0 -3.75 5
0 -2.5 -5
0 -2.5 -3.75
0 -2.5 -2.5
0 -2.5 -1.25
0 -2.5 0
0 -2.5 1.25
0 -2.5 2.5
0 -2.5 3.75
0 -2.5 5
0 -1.25 -5
0 -1.25 -3.75
0 -1.25 -2.5
0 -1.25 -1.25
0 -1.25 0
0 -1.25 1.25
0 -1.25 2.5
0 -1.25 3.75
0 -1.25 5
0 0 -5
0 0 -3.75
0 0 -2.5
0 0 -1.25
0 0 0
0 0 1.25
0 0 2.5
0 0 3.75
0 0 5
0 1.25 -5
0 1.25 -3.75
0 1.25 -2.5
0 1.25 -1.25
0 1.25 0
0 1.25 1.25
0 1.25 2.5
0 1.25 3.75
0 1.25 5
0 2.5 -5
0 2.5 -3.75
0 2.5 -2.5
0 2.5 -1.25
0 2.5 0
0 2.5 1.25
0 2.5 2.5
0 2.5 3.75
0 2.5 5
0 3.75 -5
0 3.75 -3.75
0 3.75 -2.5
0 3.75 -1.25
0 3.75 0
0 3.75 1.25
0 3.75 2.5
0 3.75 3.75
0 3.75 5
0 5 -5
0 5 -3.75
0 5 -2.5
0 5 -1.25
0 5 0
0 5 1.25
0 5 2.5
0 5 3.75
0 5 5
1.25 -5 -5
1.25 -5 -3.75
1.25 -5 -2.5
1.25 -5 -1.25
1.25 -5 0
1.25 -5 1.25
1.25 -5 2.5
1.25 -5 3.75
1.25 -5 5
1.25 -3.75 -5
1.25 -3.75 -3.75
1.25 -3.75 -2.5
1.25 -3.75 -1.25
1.25 -3.75 0
1.25 -3.75 1.25
1.25 -3.75 2.5
1.25 -3.75 3.75
1.25 -3.75 5
1.25 -2.5 -5
1.25 -2.5 -3.75
1.25 -2.5 -2.5
1.25 -2.5 -1.25
1.25 -2.5 0
1.25 -2.5 1.25
1.25 -2.5 2.5
1.25 -2.5 3.75
1.25 -2.5 5
1.25 -1.25 -5
1.25 -1.25 -3.75
1.25 -1.25 -2.5
1.25 -1.25 -1.25
1.25 -1.25 0
1.25 -1.25 1.25
1.25 -1.25 2.5
1.25 -1.25 3.75
1.25 -1.25 5
1.25 0 -5
1.25 0 -3.75
1.25 0 -2.5
1.25 0 -1.25
1.25 0 0
1.25 0 1.25
1.25 0 2.5
1.25 0 3.75
1.25 0 5
1.25 1.25 -5
1.25 1.25 -3.75
1.25 1.25 -2.5
1.25 1.25 -1.25
1.25 1.25 0
1.25 1.25 1.25
1.25 1.25 2.5
1.25 1.25 3.75
1.25 1.25 5
1.25 2.5 -5
1.25 2.5 -3.75
1.25 2.5 -2.5
1.25 2.5 -1.25
1.25 2.5 0
1.25 2.5 1.25
1.25 2.5 2.5
1.25 2.5 3.75
1.25 2.5 5
1.25 3.75 -5
1.25 3.75 -3.75
1.25 3.75 -2.5
1.25 3.75 -1.25
1.25 3.75 0
1.25 3.75 1.25
1.25 3.75 2.5
1.25 3.75 3.75
1.25 3.75 5
1.25 5 -5
1.25 5 -3.75
1.25 5 -2.5
1.25 5 -1.25
1.25 5 0
1.25 5 1.25
1.25 5 2.5
1.25 5 3.75
1.25 5 5
2.5 -5 -5
2.5 -5 -3.75
2.5 -5 -2.5
2.5 -5 -1.25
2.5 -5 0
2.5 -5 1.25
2.5 -5 2.5
2.5 -5 3.75
2.5 -5 5
2.5 -3.75 -5
2.5 -3.75 -3.75
2.5 -3.75 -2.5
2.5 -3.75 -1.25
2.5 -3.75 0
2.5 -3.75 1.25
2.5 -3.75 2.5
2.5 -3.75 3.75
2.5 -3.75 5
2.5 -2.5 -5
2.5 -2.5 -3.75
2.5 -2.5 -2.5
2.5 -2.5 -1.25
2.5 -2.5 0
2.5 -2.5 1.25
2.5 -2.5 2.5
2.5 -2.5 3.75
2.5 -2.5 5
2.5 -1.25 -5
2.5 -1.25 -3.75
2.5 -1.25 -2.5
2.5 -1.25 -1.25
2.5 -1.25 0
2.5 -1.25 1.25
2.5 -1.25 2.5
2.5 -1.25 3.75
2.5 -1.25 5
2.5 0 -5
2.5 0 -3.75
2.5 0 -2.5
2.5 0 -1.25
2.5 0 0
2.5 0 1.25
2.5 0 2.5
2.5 0 3.75
2.5 0 5
2.5 1.25 -5
2.5 1.25 -3.75
2.5 1.25 -2.5
2.5 1.25 -1.25
2.5 1.25 0
2.5 1.25 1.25
2.5 1.25 2.5
2.5 1.25 3.75
2.5 1.25 5
2.5 2.5 -5
2.5 2.5 -3.75
2.5 2.5 -2.5
2.5 2.5 -1.25
2.5 2.5 0
2.5 2.5 1.25
2.5 2.5 2.5
2.5 2.5 3.75
2.5 2.5 5
2.5 3.75 -5
2.5 3.75 -3.75
2.5 3.75 -2.5
2.5 3.75 -1.25
2.5 3.75 0
2.5 3.75 1.25
2.5 3.75 2.5
2.5 3.75 3.75
2.5 3.75 5
2.5 5 -5
2.5 5 -3.75
2.5 5 -2.5
2.5 5 -1.25
2.5 5 0
2.5 5 1.25
2.5 5 2.5
2.5 5 3.75
2.5 5 5
3.75 -5 -5
3.75 -5 -3.75
3.75 -5 -2.5
3.75 -5 -1.25
3.75 -5 0
3.75 -5 1.25
3.75 -5 2.5
3.75 -5 3.75
3.75 -5 5
3.75 -3.75 -5
3.75 -3.75 -3.75
3.75 -3.75 -2.5
3.75 -3.75 -1.25
3.75 -3.75 0
3.75 -3.75 1.25
3.75 -3.75 2.5
3.75 -3.75 3.75
3.75 -3.75 5
3.75 -2.5 -5
3.75 -2.5 -3.75
3.75 -2.5 -2.5
3.75 -2.5 -1.25
3.75 -2.5 0
3.75 -2.5 1.25
3.75 -2.5 2.5
3.75 -2.5 3.75
3.75 -2.5 5
3.75 -1.25 -5
3.75 -1.25 -3.75
3.75 -1.25 -2.5
3.75 -1.25 -1.25
3.75 -1.25 0
3.75 -1.25 1.25
3.75 -1.25 2.5
3.75 -1.25 3.75
3.75 -1.25 5
3.75 0 -5
3.75 0 -3.75
3.75 0 -2.5
3.75 0 -1.25
3.75 0 0
3.75 0 1.25
3.75 0 2.5
3.75 0 3.75
3.75 0 5
3.75 1.25 -5
3.75 1.25 -3.75
3.75 1.25 -2.5
3.75 1.25 -1.25
3.75 1.25 0
3.75 1.25 1.25
3.75 1.25 2.5
3.75 1.25 3.75
3.75 1.25 5
3.75 2.5 -5
3.75 2.5 -3.75
3.75 2.5 -2.5
3.75 2.5 -1.25
3.75 2.5 0
3.75 2.5 1.25
3.75 2.5 2.5
3.75 2.5 3.75
3.75 2.5 5
3.75 3.75 -5
3.75 3.75 -3.75
3.75 3.75 -2.5
3.75 3.75 -1.25
3.75 3.75 0
3.75 3.75 1.25
3.75 3.75 2.5
3.75 3.75 3.75
3.75 3.75 5
3.75 5 -5
3.75 5 -3.75
3.75 5 -2.5
3.75 5 -1.25
3.75 5 0
3.75 5 1.25
3.75 5 2.5
3.75 5 3.75
3.75 5 5
5 -5 -5
5 -5 -3.75
5 -5 -2.5
5 -5 -1.25
5 -5 0
5 -5 1.25
5 -5 2.5
5 -5 3.75
5 -5 5
5 -3.75 -5
5 -3.75 -3.75
5 -3.75 -2.5
5 -3.75 -1.25
5 -3.75 0
5 -3.75 1.25
5 -3.75 2.5
5 -3.75 3.75
5 -3.75 5
5 -2.5 -5
5 -2.5 -3.75
5 -2.5 -2.5
5 -2.5 -1.25
5 -2.5 0
5 -2.5 1.25
5 -2.5 2.5
5 -2.5 3.75
5 -2.5 5
5 -1.25 -5
5 -1.25 -3.75
5 -1.25 -2.5
5 -1.25 -1.25
5 -1.25 0
5 -1.25 1.25
5 -1.25 2.5
5 -1.25 3.75
5 -1.25 5
5 0 -5
5 0 -3.75
5 0 -2.5
5 0 -1.25
5 0 0
5 0 1.25
5 0 2.5
5 0 3.75
5 0 5
5 1.25 -5
5 1.25 -3.75
5 1.25 -2.5
5 1.25 -1.25
5 1.25 0
5 1.25 1.25
5 1.25 2.5
5 1.25 3.75
5 1.25 5
5 2.5 -5
5 2.5 -3.75
5 2.5 -2.5
5 2.5 -1.25
5 2.5 0
5 2.5 1.25
5 2.5 2.5
5 2.5 3.75
5 2.5 5
5 3.75 -5
5 3.75 -3.75
5 3.75 -2.5
5 3.75 -1.25
5 3.75 0
5 3.75 1.25
5 3.75 2.5
5 3.75 3.75
5 3.75 5
5 5 -5
5 5 -3.75
5 5 -2.5
5 5 -1.25
5 5 0
5 5 1.25
5 5 2.5
5 5 3.75
5 5 5
CELLS 512 4608
8 0 81 90 9 1 82 91 10
8 1 82 91 10 2 83 92 11
8 2 83 92 11 3 84 93 12
8 3 84 93 12 4 85 94 13
8 4 85 94 13 5 86 95 14
8 5 86 95 14 6 87 96 15
8 6 87 96 15 7 88 97 16
8 7 88 97 16 8 89 98 17
8 9 90 99 18 10 91 100 19
8 10 91 100 19 11 92 101 20
8 11 92 101 20 12 93 102 21
8 12 93 102 21 13 94 103 22
8 13 94 103 22 14 95 104 23
8 14 95 104 23 15 96 105 24
8 15 96 105 24 16 97 106 25
8 16 97 106 25 17 98 107 26
8 18 99 108 27 19 100 109 28
8 19 100 109 28 20 101 110 29
8 20 101 110 29 21 102 111 30
8 21 102 111 30 22 103 112 31
8 22 103 112 31 23 104 113 32
8 23 104 113 32 24 105 114 33
8 24 105 114 33 25 106 115 34
8 25 106 115 34 26 107 116 35
[...]
CELL_DATA 512
VECTORS ERRORS double
0 0.0006064850257 0.0006064850257 
0 0 0 
0 0 0 
0 0 0 
0 0 0 
0 0 0 
0 0 0 
0 0.0006110751647 0.0006110751678 
0 0 0 
0 0 0 
0 0 0 
0 0 0 
0 0 0 
0 0 0 
0 0 0 
0 0 0 
0 0 0 
0 0 0 
0 0 0 
0 0 0 
0 0 0 
0 0 0 
0 0 0 
0 0 0 
0 0 0 
0 0 0 
0 0 0 
0 0 0 
0 0 0 
0 0 0 
0 0 0 
0 0 0 
0 0 0 
0 0 0 
0 0 0 
0 0 0 
0 0 0 
0 0 0 
0 0 0 
0 0 0 
0 0 0 
0 0 0 
0 0 0 
0 0 0 
0 0 0 
0 0 0 
0 0 0 
0 0 0 
0 0 0 
0 0 0 
0 0 0 
0 0 0 
0 0 0 
0 0 0 
0 0 0 
0 0 0 
0 0.0006170254788 0.0006170254576 
0 0 0 
0 0 0 
0 0 0 
0 0 0 
0 0 0 
0 0 0 
0 0.0006101256323 0.0006101256469 
0 0.001652447017 0.00165244701 
0 0.001711755415 0.001711755445 
0 0.0006502511271 0.0006502511214 
0 0.0001161351859 0.000116135204 
0 0.0001155904522 0.0001155904696 
0 0.0006471590421 0.0006471590515 
0 0.001713284635 0.001713284641 
0 0.001657908814 0.001657908851 
0 0.001709272103 0.001709272094 
0 0.0001447317785 0.0001447317785 
0 0 0 
0 0 0 
0 0 0 
0 0 0 
0 0.0001477795553 0.0001477795553 
0 0.001704708003 0.001704708003 
0 0.0006419476314 0.0006419476452 
0 0 0 
0 0 0 
0 0 0 
0 0 0 
0 0 0 
0 0 0 
0 0.0006380095008 0.0006380095008 
0 0.000104999401 0.000104999403 
0 0 0 
0 0 0 
0 0 0 
0 0 0 
0 0 0 
0 0 0 
0 0.0001110338778 0.0001110338778 
0 0.0001065641614 0.0001065641607 
0 0 0 
0 0 0 
0 0 0 
0 0 0 
0 0 0 
0 0 0 
0 0.0001122032093 0.0001122032093 
0 0.0006391809948 0.000639180999 
0 0 0 
0 0 0 
0 0 0 
0 0 0 
0 0 0 
0 0 0 
0 0.0006401585716 0.0006401585716 
0 0.001712346632 0.001712346627 
0 0.0001454349223 0.0001454349223 
0 0 0 
0 0 0 
0 0 0 
0 0 0 
0 0.0001463821502 0.0001463821502 
0 0.001709121051 0.001709121051 
0 0.001648402973 0.001648402961 
0 0.001713102208 0.001713102208 
0 0.0006401614021 0.0006401614021 
0 9.999287654e-05 9.999287654e-05 
0 9.94662985e-05 9.94662985e-05 
0 0.0006372725627 0.0006372725627 
0 0.001713421009 0.001713421009 
0 0.001659520347 0.001659520347 
0 0 0 
0 0.0002910405606 0.0002910405829 
0 0.001301207527 0.001301207522 
0 0.001848047131 0.001848047138 
0 0.00183876668 0.001838766673 
0 0.001305495673 0.001305495663 
0 0.0002860147073 0.0002860146964 
0 0 0 
0 0.0002830489087 0.000283048914 
0 0.00177865828 0.00177865828 
0 0.002122035301 0.002122035301 
0 0.001950590236 0.001950590236 
0 0.001956980127 0.001956980127 
0 0.002125432363 0.002125432363 
0 0.001766213623 0.001766213623 
0 0.0002877140008 0.0002877140008 
0 0.001298263176 0.001298263187 
0 0.002120214301 0.002120214301 
0 0.001380459187 0.001380459187 
0 0.0005135789341 0.0005135789341 
0 0.0005168470211 0.0005168470211 
0 0.001369985438 0.001369985438 
0 0.002119693319 0.002119693319 
0 0.001289853273 0.001289853273 
0 0.001831455794 0.001831455795 
0 0.001952148735 0.001952148735 
0 0.0005356995027 0.0005356995027 
0 0 0 
0 0 0 
0 0.0005203443579 0.0005203443579 
0 0.001943125692 0.001943125692 
0 0.001837405756 0.001837405756 
0 0.001833546814 0.001833546805 
0 0.001953847078 0.001953847078 
0 0.0005338015929 0.0005338015929 
0 0 0 
0 0 0 
0 0.0005181173034 0.0005181173034 
0 0.001944691844 0.001944691844 
0 0.001837944843 0.001837944843 
0 0.001297221142 0.001297221144 
0 0.002126395264 0.002126395264 
0 0.001386014127 0.001386014127 
0 0.0005057990606 0.0005057990606 
0 0.0005096841794 0.0005096841794 
0 0.001374843179 0.001374843179 
0 0.002125409358 0.002125409358 
0 0.001288619025 0.001288619025 
0 0.0002813806256 0.0002813806212 
0 0.001784119624 0.001784119624 
0 0.00212140157 0.00212140157 
0 0.00193858372 0.00193858372 
0 0.001946583323 0.001946583323 
0 0.002123109805 0.002123109805 
0 0.001770514652 0.001770514652 
0 0.0002858925245 0.0002858925245 
0 0 0 
0 0.0002849387798 0.0002849387798 
0 0.001294793426 0.001294793426 
0 0.001845071355 0.001845071355 
0 0.001836408483 0.001836408483 
0 0.001297196509 0.001297196509 
0 0.0002783177149 0.0002783177149 
0 0 0 
0 0 0 
0 0 0 
0 0 0 
0 0 0 
0 0 0 
0 0 0 
0 0 0 
0 0 0 
0 0 0 
0 0 0 
0 0 0 
0 0 0 
0 0 0 
0 0 0 
0 0 0 
0 0 0 
0 0 0 
0 0 0 
0 8.209568967e-05 8.209568967e-05 
0 0.000673170157 0.000673170157 
0 0.0006702942713 0.0006702942713 
0 7.904396287e-05 7.904396287e-05 
0 0 0 
0 0 0 
0 0 0 
0 0 0 
0 0.0006810493046 0.0006810493046 
0 0.001612117117 0.001612117117 
0 0.001613258795 0.001613258795 
0 0.0006539305994 0.0006539305994 
0 0 0 
0 0 0 
0 0 0 
0 0 0 
0 0.000684902367 0.000684902367 
0 0.001616108818 0.001616108818 
0 0.001617218752 0.001617218752 
0 0.0006583351929 0.0006583351929 
0 0 0 
0 0 0 
0 0 0 
0 0 0 
0 8.122923378e-05 8.122923378e-05 
0 0.0006733582877 0.0006733582877 
0 0.00066992457 0.00066992457 
0 7.803128184e-05 7.803128184e-05 
0 0 0 
0 0 0 
0 0 0 
0 0 0 
0 0 0 
0 0 0 
0 0 0 
0 0 0 
0 0 0 
0 0 0 
0 0 0 
0 0 0 
0 0 0 
0 0 0 
0 0 0 
0 0 0 
0 0 0 
0 0 0 
0 0 0 
0 0 0 
0 0 0 
0 0 0 
0 0 0 
0 0 0 
0 0 0 
0 0 0 
0 0 0 
0 0 0 
0 0 0 
0 0 0 
0 0 0 
0 0 0 
0 0 0 
0 0 0 
0 0 0 
0 0 0 
0 7.839888308e-05 7.839888308e-05 
0 0.0006856518511 0.0006856518511 
0 0.0006761635655 0.0006761635655 
0 7.767155105e-05 7.767155105e-05 
0 0 0 
0 0 0 
0 0 0 
0 0 0 
0 0.0006743635252 0.0006743635252 
0 0.001644588679 0.001644588679 
0 0.001624471851 0.001624471851 
0 0.0006794077724 0.0006794077724 
0 0 0 
0 0 0 
0 0 0 
0 0 0 
0 0.0006735563721 0.0006735563721 
0 0.001636827943 0.001636827943 
0 0.00161651086 0.00161651086 
0 0.0006789808244 0.0006789808244 
0 0 0 
0 0 0 
0 0 0 
0 0 0 
0 8.062182545e-05 8.062182545e-05 
0 0.0006767930292 0.0006767930292 
0 0.0006666126811 0.0006666126811 
0 7.980098549e-05 7.980098549e-05 
0 0 0 
0 0 0 
0 0 0 
0 0 0 
0 0 0 
0 0 0 
0 0 0 
0 0 0 
0 0 0 
0 0 0 
0 0 0 
0 0 0 
0 0 0 
0 0 0 
0 0 0 
0 0 0 
0 0 0 
0 0 0 
0 0 0 
0 0.0002785156935 0.0002785157036 
0 0.00128144875 0.001281448749 
0 0.001844051257 0.001844051276 
0 0.001833435602 0.001833435595 
0 0.001288173674 0.001288173672 
0 0.0002800418396 0.0002800418417 
0 0 0 
0 0.0002875439046 0.0002875439032 
0 0.00177009909 0.00177009909 
0 0.002116283766 0.002116283766 
0 0.001946639764 0.001946639764 
0 0.001960747602 0.001960747602 
0 0.002120449123 0.002120449123 
0 0.001766693248 0.001766693248 
0 0.0002892352389 0.0002892352389 
0 0.001302533585 0.001302533576 
0 0.002129391319 0.002129391319 
0 0.001369173045 0.001369173045 
0 0.0005162788774 0.0005162788774 
0 0.0005290783371 0.0005290783371 
0 0.001362130967 0.001362130967 
0 0.00213101571 0.00213101571 
0 0.001307485327 0.001307485327 
0 0.001843068141 0.001843068153 
0 0.001952447873 0.001952447873 
0 0.0004985429027 0.0004985429027 
0 0 0 
0 0 0 
0 0.0005160067929 0.0005160067929 
0 0.001957886602 0.001957886602 
0 0.001852527499 0.001852527499 
0 0.001835359015 0.001835506295 
0 0.001950816329 0.001950691962 
0 0.0005019414786 0.000500882703 
0 3.333277777e-05 0 
0 3.333277777e-05 0 
0 0.0005190837492 0.0005180608896 
0 0.001956105561 0.001955982297 
0 0.001843296304 0.001843441738 
0 0.001303720211 0.001303406914 
0 0.002128353548 0.002128387244 
0 0.001372560357 0.001372856504 
0 0.000528504197 0.000529506453 
0 0.0005414915045 0.0005424673407 
0 0.001364723459 0.001365022334 
0 0.002129593944 0.002129627933 
0 0.001308547151 0.001308235068 
0 0.0002884163437 0.0002884163391 
0 0.001770831017 0.001770831017 
0 0.002119670952 0.002119670952 
0 0.00194991316 0.00194991316 
0 0.001965373067 0.001965373067 
0 0.002122134111 0.002122134111 
0 0.001766306169 0.001766306169 
0 0.0002899623493 0.0002899623493 
0 0 0 
0 0.0002958657746 0.0002958657746 
0 0.001306940572 0.001306940572 
0 0.001854793601 0.001854793601 
0 0.001845549452 0.001845549452 
0 0.001312095439 0.001312095439 
0 0.0002961969437 0.0002961969437 
0 0 0 
0 0.001656417766 0.001656417763 
0 0.001697739278 0.001697739262 
0 0.0006055442141 0.00060554419 
0 0.0001060687097 0.0001060687109 
0 0.000106187506 0.0001061875013 
0 0.0006085726314 0.000608572611 
0 0.001701724598 0.001701724567 
0 0.001654944433 0.00165494445 
0 0.001717455835 0.001717455858 
0 0.0001423427731 0.0001423427731 
0 0 0 
0 0 0 
0 0 0 
0 0 0 
0 0.0001471961884 0.0001471961884 
0 0.001710763851 0.001710763851 
0 0.0006505689535 0.0006505689686 
0 0 0 
0 0 0 
0 0 0 
0 0 0 
0 0 0 
0 0 0 
0 0.0006351975038 0.0006351975038 
0 0.0001074113341 0.0001074113382 
0 0 0 
0 0 0 
0 0 0 
0 0 0 
0 0 0 
0 0 0 
0 0.0001062434025 0.0001062434025 
0 0.0001079242831 0.0001079242924 
0 0 0 
0 0 0 
0 0 0 
0 0 0 
0 0 0 
0 0 0 
0 0.000106290509 0.000106290509 
0 0.0006526453508 0.0006526453447 
0 0 0 
0 0 0 
0 0 0 
0 0 0 
0 0 0 
0 0 0 
0 0.0006421351119 0.0006421351119 
0 0.001719292303 0.001719292321 
0 0.0001457238955 0.0001457238955 
0 0 0 
0 0 0 
0 0 0 
0 0 0 
0 0.000148198153 0.000148198153 
0 0.001713850108 0.001713850108 
0 0.001650439807 0.001650439806 
0 0.001720309465 0.001720309465 
0 0.0006212341878 0.0006212341878 
0 9.656316436e-05 9.656316436e-05 
0 9.695840637e-05 9.695840637e-05 
0 0.0006243192581 0.0006243192581 
0 0.001722773826 0.001722773826 
0 0.001655444384 0.001655444384 
0 0.0006009069618 0.0006000550718 
0 3.333276904e-05 0 
0 3.333276904e-05 0 
0 3.333276904e-05 0 
0 3.333276904e-05 0 
0 3.333276904e-05 0 
0 3.333276904e-05 0 
0 0.0005996286162 0.0005987753713 
0 0 0 
0 0 0 
0 0 0 
0 0 0 
0 0 0 
0 0 0 
0 0 0 
0 0 0 
0 0 0 
0 0 0 
0 0 0 
0 0 0 
0 0 0 
0 0 0 
0 0 0 
0 0 0 
0 0 0 
0 0 0 
0 0 0 
0 0 0 
0 0 0 
0 0 0 
0 0 0 
0 0 0 
0 0 0 
0 0 0 
0 0 0 
0 0 0 
0 0 0 
0 0 0 
0 0 0 
0 0 0 
0 0 0 
0 0 0 
0 0 0 
0 0 0 
0 0 0 
0 0 0 
0 0 0 
0 0 0 
0 0 0 
0 0 0 
0 0 0 
0 0 0 
0 0 0 
0 0 0 
0 0 0 
0 0 0 
0 0.0006088582691 0.000608858275 
0 0 0 
0 0 0 
0 0 0 
0 0 0 
0 0 0 
0 0 0 
0 0.0005946843937 0.0005946843937 
VECTORS FRACTIONS double
0 0.9599734308 0.04002576916 
0 0.9999994667 0 
0 0.9999994667 0 
0 0.9999994667 0 
0 0.9999994667 0 
0 0.9999994667 0 
0 0.9999994667 0 
0 0.9593133847 0.04068608193 
0 0.9999994667 0 
0 0.9999997333 0 
0 0.9999997333 0 
0 0.9999997333 0 
0 0.9999997333 0 
0 0.9999997333 0 
0 0.9999997333 0 
0 0.9999997333 0 
0 0.9999994667 0 
0 0.9999997333 0 
0 0.9999997333 0 
0 0.9999997333 0 
0 0.9999997333 0 
0 0.9999997333 0 
0 0.9999997333 0 
0 0.9999997333 0 
0 0.9999994667 0 
0 0.9999997333 0 
0 0.9999997333 0 
0 0.9999997333 0 
0 0.9999997333 0 
0 0.9999997333 0 
0 0.9999997333 0 
0 0.9999997333 0 
0 0.9999994667 0 
0 0.9999997333 0 
0 0.9999997333 0 
0 0.9999997333 0 
0 0.9999997333 0 
0 0.9999997333 0 
0 0.9999997333 0 
0 0.9999997333 0 
0 0.9999994667 0 
0 0.9999997333 0 
0 0.9999997333 0 
0 0.9999997333 0 
0 0.9999997333 0 
0 0.9999997333 0 
0 0.9999997333 0 
0 0.9999997333 0 
0 0.9999994667 0 
0 0.9999997333 0 
0 0.9999997333 0 
0 0.9999997333 0 
0 0.9999997333 0 
0 0.9999997333 0 
0 0.9999997333 0 
0 0.9999997333 0 
0 0.95883808 0.04116138662 
0 0.9999997333 0 
0 0.9999997333 0 
0 0.9999997333 0 
0 0.9999997333 0 
0 0.9999997333 0 
0 0.9999997333 0 
0 0.9594366734 0.04056305998 
0 0.2450567906 0.7549426761 
0 0.7428099868 0.2571897465 
0 0.9610222287 0.03897750461 
0 0.9980522324 0.001947500972 
0 0.9981063168 0.001893416581 
0 0.9613349182 0.03866481512 
0 0.741728595 0.2582711383 
0 0.2463012563 0.753698477 
0 0.7418563472 0.2581433861 
0 0.9958253922 0.004174607761 
0 1 0 
0 1 0 
0 1 0 
0 1 0 
0 0.9956952192 0.004304780817 
0 0.7452323152 0.2547676848 
0 0.961599246 0.03840048734 
0 1 0 
0 1 0 
0 1 0 
0 1 0 
0 1 0 
0 1 0 
0 0.9624233135 0.03757668646 
0 0.9982737852 0.001725948157 
0 1 0 
0 1 0 
0 1 0 
0 1 0 
0 1 0 
0 1 0 
0 0.9981176053 0.00188239474 
0 0.998166652 0.001833081327 
0 1 0 
0 1 0 
0 1 0 
0 1 0 
0 1 0 
0 1 0 
0 0.9980626237 0.001937376318 
0 0.961853179 0.0381465543 
0 1 0 
0 1 0 
0 1 0 
0 1 0 
0 1 0 
0 1 0 
0 0.9615508726 0.03844912735 
0 0.7424106722 0.2575890612 
0 0.9957720067 0.004227993328 
0 1 0 
0 1 0 
0 1 0 
0 1 0 
0 0.9957583698 0.004241630213 
0 0.7458107911 0.2541892089 
0 0.2430408336 0.7569588997 
0 0.7447641183 0.2552358817 
0 0.9609709356 0.03902906437 
0 0.9982617766 0.001738223392 
0 0.9982631244 0.001736875568 
0 0.9612766519 0.03872334805 
0 0.7415853071 0.2584146929 
0 0.2467274921 0.7532725079 
0 0 0.9999994667 
0 0.01179224403 0.9882074893 
0 0.1314149383 0.868584795 
0 0.2601536462 0.7398460871 
0 0.2585341184 0.741465615 
0 0.1330484317 0.8669513016 
0 0.01163432071 0.9883654126 
0 0 0.9999997333 
0 0.01145794495 0.9885417884 
0 0.2605845179 0.7394154821 
0 0.568002301 0.431997699 
0 0.7194618303 0.2805381697 
0 0.7183940227 0.2816059773 
0 0.5689078343 0.4310921657 
0 0.2574302363 0.7425697637 
0 0.01147127071 0.9885287293 
0 0.1322701777 0.8677295557 
0 0.5718261478 0.4281738522 
0 0.8659839087 0.1340160913 
0 0.9774719593 0.02252804065 
0 0.9772588242 0.02274117584 
0 0.8668633987 0.1331366013 
0 0.5711525947 0.4288474053 
0 0.1322791101 0.8677208899 
0 0.2565613114 0.743438422 
0 0.7183432805 0.2816567195 
0 0.9766358215 0.02336417849 
0 1 0 
0 1 0 
0 0.9772284023 0.0227715977 
0 0.7197712983 0.2802287017 
0 0.2557830319 0.7442169681 
0 0.2557858063 0.7442139271 
0 0.7169046813 0.2830953187 
0 0.9766185359 0.02338146413 
0 1 0 
0 1 0 
0 0.9773640658 0.02263593418 
0 0.7184815944 0.2815184056 
0 0.2560973243 0.7439026757 
0 0.1321122312 0.8678875021 
0 0.5674463966 0.4325536034 
0 0.8642277286 0.1357722714 
0 0.9779536338 0.02204636616 
0 0.9775027717 0.02249722833 
0 0.8657085395 0.1342914605 
0 0.5676675357 0.4323324643 
0 0.1308046737 0.8691953263 
0 0.01143792974 0.9885618036 
0 0.2613268266 0.7386731734 
0 0.567195572 0.432804428 
0 0.7219685358 0.2780314642 
0 0.719492768 0.280507232 
0 0.5682882602 0.4317117398 
0 0.258869458 0.741130542 
0 0.01138197618 0.9886180238 
0 0 0.9999997333 
0 0.01169632706 0.9883036729 
0 0.1311582481 0.8688417519 
0 0.2593236965 0.7406763035 
0 0.2586057686 0.7413942314 
0 0.131595862 0.868404138 
0 0.01124351251 0.9887564875 
0 0 1 
0 0 0.9999994667 
0 0 0.9999997333 
0 0 0.9999997333 
0 0 0.9999997333 
0 0 0.9999997333 
0 0 0.9999997333 
0 0 0.9999997333 
0 0 0.9999997333 
0 0 0.9999997333 
0 0 1 
0 0 1 
0 0 1 
0 0 1 
0 0 1 
0 0 1 
0 0 1 
0 0 0.9999997333 
0 0 1 
0 0.001506190673 0.9984938093 
0 0.03346711662 0.9665328834 
0 0.03389596508 0.9661040349 
0 0.001434785841 0.9985652142 
0 0 1 
0 0 1 
0 0 0.9999997333 
0 0 1 
0 0.03441712452 0.9655828755 
0 0.1512727191 0.8487272809 
0 0.1514373922 0.8485626078 
0 0.03302720297 0.966972797 
0 0 1 
0 0 1 
0 0 0.9999997333 
0 0 1 
0 0.0341980782 0.9658019218 
0 0.1518777518 0.8481222482 
0 0.1522790232 0.8477209768 
0 0.0331833834 0.9668166166 
0 0 1 
0 0 1 
0 0 0.9999997333 
0 0 1 
0 0.001482845944 0.9985171541 
0 0.03383466862 0.9661653314 
0 0.03369517467 0.9663048253 
0 0.001396023871 0.9986039761 
0 0 1 
0 0 1 
0 0 0.9999997333 
0 0 1 
0 0 1 
0 0 1 
0 0 1 
0 0 1 
0 0 1 
0 0 1 
0 0 0.9999997333 
0 0 1 
0 0 1 
0 0 1 
0 0 1 
0 0 1 
0 0 1 
0 0 1 
0 0 0.9999994667 
0 0 0.9999997333 
0 0 0.9999997333 
0 0 0.9999997333 
0 0 0.9999997333 
0 0 0.9999997333 
0 0 0.9999997333 
0 0 0.9999997333 
0 0 0.9999997333 
0 0 1 
0 0 1 
0 0 1 
0 0 1 
0 0 1 
0 0 1 
0 0 1 
0 0 0.9999997333 
0 0 1 
0 0.001393936608 0.9986060634 
0 0.03463279033 0.9653672097 
0 0.03444919437 0.9655508056 
0 0.001431421051 0.9985685789 
0 0 1 
0 0 1 
0 0 0.9999997333 
0 0 1 
0 0.03457398633 0.9654260137 
0 0.1564428279 0.8435571721 
0 0.1530523848 0.8469476152 
0 0.03460321281 0.9653967872 
0 0 1 
0 0 1 
0 0 0.9999997333 
0 0 1 
0 0.03403342447 0.9659665755 
0 0.1553490146 0.8446509854 
0 0.1521933026 0.8478066974 
0 0.03443726485 0.9655627351 
0 0 1 
0 0 1 
0 0 0.9999997333 
0 0 1 
0 0.001446131674 0.9985538683 
0 0.03420331365 0.9657966864 
0 0.03344888715 0.9665511129 
0 0.001468308639 0.9985316914 
0 0 1 
0 0 1 
0 0 0.9999997333 
0 0 1 
0 0 1 
0 0 1 
0 0 1 
0 0 1 
0 0 1 
0 0 1 
0 0 0.9999997333 
0 0 1 
0 0 1 
0 0 1 
0 0 1 
0 0 1 
0 0 1 
0 0 1 
0 0 0.9999994667 
0 0.01108005555 0.9889196778 
0 0.1289058112 0.8710939222 
0 0.2596588617 0.7403408716 
0 0.2566920364 0.7433076969 
0 0.1308639777 0.8691357556 
0 0.01132108452 0.9886786488 
0 0 0.9999997333 
0 0.01165286646 0.9883468669 
0 0.2585066924 0.7414933076 
0 0.5688483971 0.4311516029 
0 0.719642908 0.280357092 
0 0.7166226017 0.2833773983 
0 0.5678491382 0.4321508618 
0 0.2572872002 0.7427127998 
0 0.01184730012 0.9881526999 
0 0.1321130925 0.8678866408 
0 0.564720384 0.435279616 
0 0.8657376616 0.1342623384 
0 0.9774795764 0.02252042356 
0 0.9765336435 0.02346635651 
0 0.8663975981 0.1336024019 
0 0.5644212974 0.4355787026 
0 0.1334816717 0.8665183283 
0 0.2585976828 0.7414020505 
0 0.7178042134 0.2821957866 
0 0.9780373204 0.02196267957 
0 1 0 
0 1 0 
0 0.9774755539 0.02252444615 
0 0.7163003975 0.2836996025 
0 0.2595353629 0.7404646371 
0 0.2566793021 0.743287098 
0 0.7183331352 0.2816335315 
0 0.9777779327 0.02218873394 
0 0.9999666667 0 
0 0.9999666667 0 
0 0.9773673091 0.02259935759 
0 0.7169821478 0.2829845189 
0 0.2587041653 0.7412625014 
0 0.1324680555 0.8675650111 
0 0.5645618165 0.4354715168 
0 0.8658880223 0.134145311 
0 0.9771955347 0.02283779865 
0 0.9760114756 0.02402185769 
0 0.867150122 0.1328832114 
0 0.565162182 0.4348711513 
0 0.1325229287 0.8675104047 
0 0.01173057381 0.9882691595 
0 0.2589836691 0.7410163309 
0 0.5683134145 0.4316865855 
0 0.7196400707 0.2803599293 
0 0.7152360181 0.2847639819 
0 0.5675348024 0.4324651976 
0 0.2584923136 0.7415076864 
0 0.01185848705 0.9881415129 
0 0 0.9999997333 
0 0.01194656132 0.9880534387 
0 0.1321346298 0.8678653702 
0 0.2609768913 0.7390231087 
0 0.2590706036 0.7409293964 
0 0.1330015808 0.8669984192 
0 0.01191128605 0.9880887139 
0 0 1 
0 0.2460144344 0.7539850322 
0 0.7456922422 0.2543074911 
0 0.9637110667 0.03628866661 
0 0.9982071935 0.001792539813 
0 0.998230709 0.001769024348 
0 0.9635620874 0.03643764594 
0 0.7454410378 0.2545586955 
0 0.2466773235 0.7533224098 
0 0.743137379 0.2568623544 
0 0.9959109542 0.00408904584 
0 1 0 
0 1 0 
0 1 0 
0 1 0 
0 0.995727949 0.004272051017 
0 0.7452995571 0.2547004429 
0 0.960807419 0.03919231436 
0 1 0 
0 1 0 
0 1 0 
0 1 0 
0 1 0 
0 1 0 
0 0.962016774 0.03798322605 
0 0.9982404883 0.001759244989 
0 1 0 
0 1 0 
0 1 0 
0 1 0 
0 1 0 
0 1 0 
0 0.9982032106 0.001796789429 
0 0.9981802556 0.001819477724 
0 1 0 
0 1 0 
0 1 0 
0 1 0 
0 1 0 
0 1 0 
0 0.9981978177 0.001802182325 
0 0.9606237253 0.03937600806 
0 1 0 
0 1 0 
0 1 0 
0 1 0 
0 1 0 
0 1 0 
0 0.960707207 0.03929279301 
0 0.7426013371 0.2573983962 
0 0.995700088 0.00429991196 
0 1 0 
0 1 0 
0 1 0 
0 1 0 
0 0.9956442634 0.004355736584 
0 0.7448486158 0.2551513842 
0 0.2430340705 0.7569656628 
0 0.7432159117 0.2567840883 
0 0.9621128805 0.03788711953 
0 0.9982897234 0.001710276566 
0 0.998258816 0.001741184007 
0 0.9619624797 0.03803752025 
0 0.7409400042 0.2590599958 
0 0.2464247152 0.7535752848 
0 0.9603711347 0.03959499864 
0 0.9999664 0 
0 0.9999664 0 
0 0.9999664 0 
0 0.9999664 0 
0 0.9999664 0 
0 0.9999664 0 
0 0.9601276762 0.03983872376 
0 0.9999997333 0 
0 1 0 
0 1 0 
0 1 0 
0 1 0 
0 1 0 
0 1 0 
0 1 0 
0 0.9999997333 0 
0 1 0 
0 1 0 
0 1 0 
0 1 0 
0 1 0 
0 1 0 
0 1 0 
0 0.9999997333 0 
0 1 0 
0 1 0 
0 1 0 
0 1 0 
0 1 0 
0 1 0 
0 1 0 
0 0.9999997333 0 
0 1 0 
0 1 0 
0 1 0 
0 1 0 
0 1 0 
0 1 0 
0 1 0 
0 0.9999997333 0 
0 1 0 
0 1 0 
0 1 0 
0 1 0 
0 1 0 
0 1 0 
0 1 0 
0 0.9999997333 0 
0 1 0 
0 1 0 
0 1 0 
0 1 0 
0 1 0 
0 1 0 
0 1 0 
0 0.9591371287 0.0408626046 
0 1 0 
0 1 0 
0 1 0 
0 1 0 
0 1 0 
0 1 0 
0 0.9602843158 0.03971568423 
SCALARS mat_0 double 1
LOOKUP_TABLE default
0 
0 
0 
0 
0 
0 
0 
0 
0 
0 
0 
0 
0 
0 
0 
0 
0 
0 
0 
0 
0 
0 
0 
0 
0 
0 
0 
0 
0 
0 
0 
0 
0 
0 
0 
0 
0 
0 
0 
0 
0 
0 
0 
0 
0 
0 
0 
0 
0 
0 
0 
0 
0 
0 
0 
0 
0 
0 
0 
0 
0 
0 
0 
0 
0 
0 
0 
0 
0 
0 
0 
0 
0 
0 
0 
0 
0 
0 
0 
0 
0 
0 
0 
0 
0 
0 
0 
0 
0 
0 
0 
0 
0 
0 
0 
0 
0 
0 
0 
0 
0 
0 
0 
0 
0 
0 
0 
0 
0 
0 
0 
0 
0 
0 
0 
0 
0 
0 
0 
0 
0 
0 
0 
0 
0 
0 
0 
0 
0 
0 
0 
0 
0 
0 
0 
0 
0 
0 
0 
0 
0 
0 
0 
0 
0 
0 
0 
0 
0 
0 
0 
0 
0 
0 
0 
0 
0 
0 
0 
0 
0 
0 
0 
0 
0 
0 
0 
0 
0 
0 
0 
0 
0 
0 
0 
0 
0 
0 
0 
0 
0 
0 
0 
0 
0 
0 
0 
0 
0 
0 
0 
0 
0 
0 
0 
0 
0 
0 
0 
0 
0 
0 
0 
0 
0 
0 
0 
0 
0 
0 
0 
0 
0 
0 
0 
0 
0 
0 
0 
0 
0 
0 
0 
0 
0 
0 
0 
0 
0 
0 
0 
0 
0 
0 
0 
0 
0 
0 
0 
0 
0 
0 
0 
0 
0 
0 
0 
0 
0 
0 
0 
0 
0 
0 
0 
0 
0 
0 
0 
0 
0 
0 
0 
0 
0 
0 
0 