# vtk DataFile Version 3.0
MOAB 4.1.0pre
ASCII
DATASET UNSTRUCTURED_GRID
POINTS 4096 double
-5 -5 -5
-3.12 -5 -5
-3.12 -3.12 -5
-5 -3.12 -5
-5 -5 -3.12
-3.12 -5 -3.12
-3.12 -3.12 -3.12
-5 -3.12 -3.12
-5 -5 -3.12
-3.12 -5 -3.12
-3.12 -3.12 -3.12
-5 -3.12 -3.12
-5 -5 -1.25
-3.12 -5 -1.25
-3.12 -3.12 -1.25
-5 -3.12 -1.25
-5 -5 -1.25
-3.12 -5 -1.25
-3.12 -3.12 -1.25
-5 -3.12 -1.25
-5 -5 0.62
-3.12 -5 0.62
-3.12 -3.12 0.62
-5 -3.12 0.62
-5 -5 0.62
-3.12 -5 0.62
-3.12 -3.12 0.62
-5 -3.12 0.62
-5 -5 2.5
-3.12 -5 2.5
-3.12 -3.12 2.5
-5 -3.12 2.5
-5 -5 2.5
-3.12 -5 2.5
-3.12 -3.12 2.5
-5 -3.12 2.5
-5 -5 4.38
-3.12 -5 4.38
-3.12 -3.12 4.38
-5 -3.12 4.38
-5 -5 4.38
-3.12 -5 4.38
-3.12 -3.12 4.38
-5 -3.12 4.38
-5 -5 6.25
-3.12 -5 6.25
-3.12 -3.12 6.25
-5 -3.12 6.25
-5 -5 6.25
-3.12 -5 6.25
-3.12 -3.12 6.25
-5 -3.12 6.25
-5 -5 8.12
-3.12 -5 8.12
-3.12 -3.12 8.12
-5 -3.12 8.12
-5 -5 8.12
-3.12 -5 8.12
-3.12 -3.12 8.12
-5 -3.12 8.12
-5 -5 10
-3.12 -5 10
-3.12 -3.12 10
-5 -3.12 10
-5 -3.12 -5
-3.12 -3.12 -5
-3.12 -1.25 -5
-5 -1.25 -5
-5 -3.12 -3.12
-3.12 -3.12 -3.12
-3.12 -1.25 -3.12
-5 -1.25 -3.12
-5 -3.12 -3.12
-3.12 -3.12 -3.12
-3.12 -1.25 -3.12
-5 -1.25 -3.12
-5 -3.12 -1.25
-3.12 -3.12 -1.25
-3.12 -1.25 -1.25
-5 -1.25 -1.25
-5 -3.12 -1.25
-3.12 -3.12 -1.25
-3.12 -1.25 -1.25
-5 -1.25 -1.25
-5 -3.12 0.62
-3.12 -3.12 0.62
-3.12 -1.25 0.62
-5 -1.25 0.62
-5 -3.12 0.62
-3.12 -3.12 0.62
-3.12 -1.25 0.62
-5 -1.25 0.62
-5 -3.12 2.5
-3.12 -3.12 2.5
-3.12 -1.25 2.5
-5 -1.25 2.5
-5 -3.12 2.5
-3.12 -3.12 2.5
-3.12 -1.25 2.5
-5 -1.25 2.5
-5 -3.12 4.38
-3.12 -3.12 4.38
-3.12 -1.25 4.38
-5 -1.25 4.38
-5 -3.12 4.38
-3.12 -3.12 4.38
-3.12 -1.25 4.38
-5 -1.25 4.38
-5 -3.12 6.25
-3.12 -3.12 6.25
-3.12 -1.25 6.25
-5 -1.25 6.25
-5 -3.12 6.25
-3.12 -3.12 6.25
-3.12 -1.25 6.25
-5 -1.25 6.25
-5 -3.12 8.12
-3.12 -3.12 8.12
-3.12 -1.25 8.12
-5 -1.25 8.12
-5 -3.12 8.12
-3.12 -3.12 8.12
-3.12 -1.25 8.12
-5 -1.25 8.12
-5 -3.12 10
-3.12 -3.12 10
-3.12 -1.25 10
-5 -1.25 10
-5 -1.25 -5
-3.12 -1.25 -5
-3.12 0.62 -5
-5 0.62 -5
-5 -1.25 -3.12
-3.12 -1.25 -3.12
-3.12 0.62 -3.12
-5 0.62 -3.12
-5 -1.25 -3.12
-3.12 -1.25 -3.12
-3.12 0.62 -3.12
-5 0.62 -3.12
-5 -1.25 -1.25
-3.12 -1.25 -1.25
-3.12 0.62 -1.25
-5 0.62 -1.25
-5 -1.25 -1.25
-3.12 -1.25 -1.25
-3.12 0.62 -1.25
-5 0.62 -1.25
-5 -1.25 0.62
-3.12 -1.25 0.62
-3.12 0.62 0.62
-5 0.62 0.62
-5 -1.25 0.62
-3.12 -1.25 0.62
-3.12 0.62 0.62
-5 0.62 0.62
-5 -1.25 2.5
-3.12 -1.25 2.5
-3.12 0.62 2.5
-5 0.62 2.5
-5 -1.25 2.5
-3.12 -1.25 2.5
-3.12 0.62 2.5
-5 0.62 2.5
-5 -1.25 4.38
-3.12 -1.25 4.38
-3.12 0.62 4.38
-5 0.62 4.38
-5 -1.25 4.38
-3.12 -1.25 4.38
-3.12 0.62 4.38
-5 0.62 4.38
-5 -1.25 6.25
-3.12 -1.25 6.25
-3.12 0.62 6.25
-5 0.62 6.25
-5 -1.25 6.25
-3.12 -1.25 6.25
-3.12 0.62 6.25
-5 0.62 6.25
-5 -1.25 8.12
-3.12 -1.25 8.12
-3.12 0.62 8.12
-5 0.62 8.12
-5 -1.25 8.12
-3.12 -1.25 8.12
-3.12 0.62 8.12
-5 0.62 8.12
-5 -1.25 10
-3.12 -1.25 10
-3.12 0.62 10
-5 0.62 10
-5 0.62 -5
-3.12 0.62 -5
-3.12 2.5 -5
-5 2.5 -5
-5 0.62 -3.12
-3.12 0.62 -3.12
-3.12 2.5 -3.12
-5 2.5 -3.12
-5 0.62 -3.12
-3.12 0.62 -3.12
-3.12 2.5 -3.12
-5 2.5 -3.12
-5 0.62 -1.25
-3.12 0.62 -1.25
-3.12 2.5 -1.25
-5 2.5 -1.25
-5 0.62 -1.25
-3.12 0.62 -1.25
-3.12 2.5 -1.25
-5 2.5 -1.25
-5 0.62 0.62
-3.12 0.62 0.62
-3.12 2.5 0.62
-5 2.5 0.62
-5 0.62 0.62
-3.12 0.62 0.62
-3.12 2.5 0.62
-5 2.5 0.62
-5 0.62 2.5
-3.12 0.62 2.5
-3.12 2.5 2.5
-5 2.5 2.5
-5 0.62 2.5
-3.12 0.62 2.5
-3.12 2.5 2.5
-5 2.5 2.5
-5 0.62 4.38
-3.12 0.62 4.38
-3.12 2.5 4.38
-5 2.5 4.38
-5 0.62 4.38
-3.12 0.62 4.38
-3.12 2.5 4.38
-5 2.5 4.38
-5 0.62 6.25
-3.12 0.62 6.25
-3.12 2.5 6.25
-5 2.5 6.25
-5 0.62 6.25
-3.12 0.62 6.25
-3.12 2.5 6.25
-5 2.5 6.25
-5 0.62 8.12
-3.12 0.62 8.12
-3.12 2.5 8.12
-5 2.5 8.12
-5 0.62 8.12
-3.12 0.62 8.12
-3.12 2.5 8.12
-5 2.5 8.12
-5 0.62 10
-3.12 0.62 10
-3.12 2.5 10
-5 2.5 10
-5 2.5 -5
-3.12 2.5 -5
-3.12 4.38 -5
-5 4.38 -5
-5 2.5 -3.12
-3.12 2.5 -3.12
-3.12 4.38 -3.12
-5 4.38 -3.12
-5 2.5 -3.12
-3.12 2.5 -3.12
-3.12 4.38 -3.12
-5 4.38 -3.12
-5 2.5 -1.25
-3.12 2.5 -1.25
-3.12 4.38 -1.25
-5 4.38 -1.25
-5 2.5 -1.25
-3.12 2.5 -1.25
-3.12 4.38 -1.25
-5 4.38 -1.25
-5 2.5 0.62
-3.12 2.5 0.62
-3.12 4.38 0.62
-5 4.38 0.62
-5 2.5 0.62
-3.12 2.5 0.62
-3.12 4.38 0.62
-5 4.38 0.62
-5 2.5 2.5
-3.12 2.5 2.5
-3.12 4.38 2.5
-5 4.38 2.5
-5 2.5 2.5
-3.12 2.5 2.5
-3.12 4.38 2.5
-5 4.38 2.5
-5 2.5 4.38
-3.12 2.5 4.38
-3.12 4.38 4.38
-5 4.38 4.38
-5 2.5 4.38
-3.12 2.5 4.38
-3.12 4.38 4.38
-5 4.38 4.38
-5 2.5 6.25
-3.12 2.5 6.25
-3.12 4.38 6.25
-5 4.38 6.25
-5 2.5 6.25
-3.12 2.5 6.25
-3.12 4.38 6.25
-5 4.38 6.25
-5 2.5 8.12
-3.12 2.5 8.12
-3.12 4.38 8.12
-5 4.38 8.12
-5 2.5 8.12
-3.12 2.5 8.12
-3.12 4.38 8.12
-5 4.38 8.12
-5 2.5 10
-3.12 2.5 10
-3.12 4.38 10
-5 4.38 10
-5 4.38 -5
-3.12 4.38 -5
-3.12 6.25 -5
-5 6.25 -5
-5 4.38 -3.12
-3.12 4.38 -3.12
-3.12 6.25 -3.12
-5 6.25 -3.12
-5 4.38 -3.12
-3.12 4.38 -3.12
-3.12 6.25 -3.12
-5 6.25 -3.12
-5 4.38 -1.25
-3.12 4.38 -1.25
-3.12 6.25 -1.25
-5 6.25 -1.25
-5 4.38 -1.25
-3.12 4.38 -1.25
-3.12 6.25 -1.25
-5 6.25 -1.25
-5 4.38 0.62
-3.12 4.38 0.62
-3.12 6.25 0.62
-5 6.25 0.62
-5 4.38 0.62
-3.12 4.38 0.62
-3.12 6.25 0.62
-5 6.25 0.62
-5 4.38 2.5
-3.12 4.38 2.5
-3.12 6.25 2.5
-5 6.25 2.5
-5 4.38 2.5
-3.12 4.38 2.5
-3.12 6.25 2.5
-5 6.25 2.5
-5 4.38 4.38
-3.12 4.38 4.38
-3.12 6.25 4.38
-5 6.25 4.38
-5 4.38 4.38
-3.12 4.38 4.38
-3.12 6.25 4.38
-5 6.25 4.38
-5 4.38 6.25
-3.12 4.38 6.25
-3.12 6.25 6.25
-5 6.25 6.25
-5 4.38 6.25
-3.12 4.38 6.25
-3.12 6.25 6.25
-5 6.25 6.25
-5 4.38 8.12
-3.12 4.38 8.12
-3.12 6.25 8.12
-5 6.25 8.12
-5 4.38 8.12
-3.12 4.38 8.12
-3.12 6.25 8.12
-5 6.25 8.12
-5 4.38 10
-3.12 4.38 10
-3.12 6.25 10
-5 6.25 10
-5 6.25 -5
-3.12 6.25 -5
-3.12 8.12 -5
-5 8.12 -5
-5 6.25 -3.12
-3.12 6.25 -3.12
-3.12 8.12 -3.12
-5 8.12 -3.12
-5 6.25 -3.12
-3.12 6.25 -3.12
-3.12 8.12 -3.12
-5 8.12 -3.12
-5 6.25 -1.25
-3.12 6.25 -1.25
-3.12 8.12 -1.25
-5 8.12 -1.25
-5 6.25 -1.25
-3.12 6.25 -1.25
-3.12 8.12 -1.25
-5 8.12 -1.25
-5 6.25 0.62
-3.12 6.25 0.62
-3.12 8.12 0.62
-5 8.12 0.62
-5 6.25 0.62
-3.12 6.25 0.62
-3.12 8.12 0.62
-5 8.12 0.62
-5 6.25 2.5
-3.12 6.25 2.5
-3.12 8.12 2.5
-5 8.12 2.5
-5 6.25 2.5
-3.12 6.25 2.5
-3.12 8.12 2.5
-5 8.12 2.5
-5 6.25 4.38
-3.12 6.25 4.38
-3.12 8.12 4.38
-5 8.12 4.38
-5 6.25 4.38
-3.12 6.25 4.38
-3.12 8.12 4.38
-5 8.12 4.38
-5 6.25 6.25
-3.12 6.25 6.25
-3.12 8.12 6.25
-5 8.12 6.25
-5 6.25 6.25
-3.12 6.25 6.25
-3.12 8.12 6.25
-5 8.12 6.25
-5 6.25 8.12
-3.12 6.25 8.12
-3.12 8.12 8.12
-5 8.12 8.12
-5 6.25 8.12
-3.12 6.25 8.12
-3.12 8.12 8.12
-5 8.12 8.12
-5 6.25 10
-3.12 6.25 10
-3.12 8.12 10
-5 8.12 10
-5 8.12 -5
-3.12 8.12 -5
-3.12 10 -5
-5 10 -5
-5 8.12 -3.12
-3.12 8.12 -3.12
-3.12 10 -3.12
-5 10 -3.12
-5 8.12 -3.12
-3.12 8.12 -3.12
-3.12 10 -3.12
-5 10 -3.12
-5 8.12 -1.25
-3.12 8.12 -1.25
-3.12 10 -1.25
-5 10 -1.25
-5 8.12 -1.25
-3.12 8.12 -1.25
-3.12 10 -1.25
-5 10 -1.25
-5 8.12 0.62
-3.12 8.12 0.62
-3.12 10 0.62
-5 10 0.62
-5 8.12 0.62
-3.12 8.12 0.62
-3.12 10 0.62
-5 10 0.62
-5 8.12 2.5
-3.12 8.12 2.5
-3.12 10 2.5
-5 10 2.5
-5 8.12 2.5
-3.12 8.12 2.5
-3.12 10 2.5
-5 10 2.5
-5 8.12 4.38
-3.12 8.12 4.38
-3.12 10 4.38
-5 10 4.38
-5 8.12 4.38
-3.12 8.12 4.38
-3.12 10 4.38
-5 10 4.38
-5 8.12 6.25
-3.12 8.12 6.25
-3.12 10 6.25
-5 10 6.25
-5 8.12 6.25
-3.12 8.12 6.25
-3.12 10 6.25
-5 10 6.25
-5 8.12 8.12
-3.12 8.12 8.12
-3.12 10 8.12
-5 10 8.12
-5 8.12 8.12
-3.12 8.12 8.12
-3.12 10 8.12
-5 10 8.12
-5 8.12 10
-3.12 8.12 10
-3.12 10 10
-5 10 10
-3.12 -5 -5
-1.25 -5 -5
-1.25 -3.12 -5
-3.12 -3.12 -5
-3.12 -5 -3.12
-1.25 -5 -3.12
-1.25 -3.12 -3.12
-3.12 -3.12 -3.12
-3.12 -5 -3.12
-1.25 -5 -3.12
-1.25 -3.12 -3.12
-3.12 -3.12 -3.12
-3.12 -5 -1.25
-1.25 -5 -1.25
-1.25 -3.12 -1.25
-3.12 -3.12 -1.25
-3.12 -5 -1.25
-1.25 -5 -1.25
-1.25 -3.12 -1.25
-3.12 -3.12 -1.25
-3.12 -5 0.62
-1.25 -5 0.62
-1.25 -3.12 0.62
-3.12 -3.12 0.62
-3.12 -5 0.62
-1.25 -5 0.62
-1.25 -3.12 0.62
-3.12 -3.12 0.62
-3.12 -5 2.5
-1.25 -5 2.5
-1.25 -3.12 2.5
-3.12 -3.12 2.5
-3.12 -5 2.5
-1.25 -5 2.5
-1.25 -3.12 2.5
-3.12 -3.12 2.5
-3.12 -5 4.38
-1.25 -5 4.38
-1.25 -3.12 4.38
-3.12 -3.12 4.38
-3.12 -5 4.38
-1.25 -5 4.38
-1.25 -3.12 4.38
-3.12 -3.12 4.38
-3.12 -5 6.25
-1.25 -5 6.25
-1.25 -3.12 6.25
-3.12 -3.12 6.25
-3.12 -5 6.25
-1.25 -5 6.25
-1.25 -3.12 6.25
-3.12 -3.12 6.25
-3.12 -5 8.12
-1.25 -5 8.12
-1.25 -3.12 8.12
-3.12 -3.12 8.12
-3.12 -5 8.12
-1.25 -5 8.12
-1.25 -3.12 8.12
-3.12 -3.12 8.12
-3.12 -5 10
-1.25 -5 10
-1.25 -3.12 10
-3.12 -3.12 10
-3.12 -3.12 -5
-1.25 -3.12 -5
-1.25 -1.25 -5
-3.12 -1.25 -5
-3.12 -3.12 -3.12
-1.25 -3.12 -3.12
-1.25 -1.25 -3.12
-3.12 -1.25 -3.12
-3.12 -3.12 -3.12
-1.25 -3.12 -3.12
-1.25 -1.25 -3.12
-3.12 -1.25 -3.12
-3.12 -3.12 -1.25
-1.25 -3.12 -1.25
-1.25 -1.25 -1.25
-3.12 -1.25 -1.25
-3.12 -3.12 -1.25
-1.25 -3.12 -1.25
-1.25 -1.25 -1.25
-3.12 -1.25 -1.25
-3.12 -3.12 0.62
-1.25 -3.12 0.62
-1.25 -1.25 0.62
-3.12 -1.25 0.62
-3.12 -3.12 0.62
-1.25 -3.12 0.62
-1.25 -1.25 0.62
-3.12 -1.25 0.62
-3.12 -3.12 2.5
-1.25 -3.12 2.5
-1.25 -1.25 2.5
-3.12 -1.25 2.5
-3.12 -3.12 2.5
-1.25 -3.12 2.5
-1.25 -1.25 2.5
-3.12 -1.25 2.5
-3.12 -3.12 4.38
-1.25 -3.12 4.38
-1.25 -1.25 4.38
-3.12 -1.25 4.38
-3.12 -3.12 4.38
-1.25 -3.12 4.38
-1.25 -1.25 4.38
-3.12 -1.25 4.38
-3.12 -3.12 6.25
-1.25 -3.12 6.25
-1.25 -1.25 6.25
-3.12 -1.25 6.25
-3.12 -3.12 6.25
-1.25 -3.12 6.25
-1.25 -1.25 6.25
-3.12 -1.25 6.25
-3.12 -3.12 8.12
-1.25 -3.12 8.12
-1.25 -1.25 8.12
-3.12 -1.25 8.12
-3.12 -3.12 8.12
-1.25 -3.12 8.12
-1.25 -1.25 8.12
-3.12 -1.25 8.12
-3.12 -3.12 10
-1.25 -3.12 10
-1.25 -1.25 10
-3.12 -1.25 10
-3.12 -1.25 -5
-1.25 -1.25 -5
-1.25 0.62 -5
-3.12 0.62 -5
-3.12 -1.25 -3.12
-1.25 -1.25 -3.12
-1.25 0.62 -3.12
-3.12 0.62 -3.12
-3.12 -1.25 -3.12
-1.25 -1.25 -3.12
-1.25 0.62 -3.12
-3.12 0.62 -3.12
-3.12 -1.25 -1.25
-1.25 -1.25 -1.25
-1.25 0.62 -1.25
-3.12 0.62 -1.25
-3.12 -1.25 -1.25
-1.25 -1.25 -1.25
-1.25 0.62 -1.25
-3.12 0.62 -1.25
-3.12 -1.25 0.62
-1.25 -1.25 0.62
-1.25 0.62 0.62
-3.12 0.62 0.62
-3.12 -1.25 0.62
-1.25 -1.25 0.62
-1.25 0.62 0.62
-3.12 0.62 0.62
-3.12 -1.25 2.5
-1.25 -1.25 2.5
-1.25 0.62 2.5
-3.12 0.62 2.5
-3.12 -1.25 2.5
[...]
CELL_DATA 512
SCALARS n_group_001 double 1
LOOKUP_TABLE default
1.03731e-05 
1.1283e-05 
1.34935e-05 
1.42108e-05 
1.21152e-05 
2.57574e-06 
0 
0 
1.23581e-05 
1.59452e-05 
1.88423e-05 
2.00967e-05 
1.64072e-05 
2.16891e-06 
0 
0 
1.24446e-05 
1.9884e-05 
1.86325e-05 
1.80882e-05 
1.58415e-05 
2.29546e-06 
0 
0 
1.15605e-05 
1.81335e-05 
2.16183e-05 
1.93923e-05 
1.72565e-05 
3.5489e-06 
0 
0 
1.38087e-05 
1.89783e-05 
1.61344e-05 
1.58679e-05 
1.58316e-05 
3.02907e-06 
0 
0 
2.31706e-06 
2.72336e-06 
2.61084e-06 
2.29885e-06 
2.35488e-06 
5.23407e-07 
0 
0 
0 
0 
0 
0 
0 
0 
0 
0 
0 
0 
0 
0 
0 
0 
0 
0 
6.27019e-05 
8.92686e-05 
7.49041e-05 
7.91146e-05 
7.46012e-05 
1.22933e-05 
0 
0 
8.04108e-05 
0.000106662 
9.92517e-05 
0.00010143 
9.3167e-05 
1.79249e-05 
0 
0 
8.08281e-05 
0.000102416 
9.61261e-05 
9.82682e-05 
9.08343e-05 
1.98831e-05 
0 
0 
8.5833e-05 
0.000102272 
0.000100612 
9.81605e-05 
0.000101663 
2.2988e-05 
0 
0 
7.67939e-05 
9.62655e-05 
9.33324e-05 
9.68414e-05 
8.57123e-05 
1.44493e-05 
0 
0 
1.53349e-05 
1.81543e-05 
1.9323e-05 
2.0532e-05 
1.71786e-05 
2.66956e-06 
0 
0 
0 
0 
0 
0 
0 
0 
0 
0 
0 
0 
0 
0 
0 
0 
0 
0 
0.000101805 
0.000171998 
0.000190589 
0.000190449 
0.00014279 
2.1052e-05 
0 
0 
0.000180852 
0.000298719 
0.000301037 
0.000304451 
0.000244326 
3.64509e-05 
0 
0 
0.000197625 
0.000306351 
0.000335596 
0.000310924 
0.000263232 
4.2707e-05 
0 
0 
0.000185432 
0.000319844 
0.000327048 
0.000313897 
0.000236964 
3.92748e-05 
0 
0 
0.000132709 
0.000212646 
0.000245455 
0.000241495 
0.000170784 
2.49569e-05 
0 
0 
2.39421e-05 
3.22733e-05 
4.09358e-05 
3.69492e-05 
2.58691e-05 
5.02367e-06 
0 
0 
0 
0 
0 
0 
0 
0 
0 
0 
0 
0 
0 
0 
0 
0 
0 
0 
7.73087e-05 
0.000117939 
0.000115459 
0.000120387 
9.66235e-05 
1.43078e-05 
0 
0 
0.000116652 
0.000164506 
0.00017421 
0.000169533 
0.00014869 
2.87682e-05 
0 
0 
0.000129141 
0.00016445 
0.000169274 
0.000172065 
0.00015217 
3.16918e-05 
0 
0 
0.000119684 
0.000176408 
0.000173715 
0.000178446 
0.000142358 
2.88218e-05 
0 
0 
9.63268e-05 
0.000152222 
0.000143601 
0.000149402 
0.000119003 
1.73736e-05 
0 
0 
1.60464e-05 
2.68942e-05 
2.96544e-05 
2.74375e-05 
2.12848e-05 
3.49141e-06 
0 
0 
0 
0 
0 
0 
0 
0 
0 
0 
0 
0 
0 
0 
0 
0 
0 
0 
1.71963e-05 
2.20049e-05 
1.90943e-05 
2.25484e-05 
2.04487e-05 
4.23731e-06 
0 
0 
2.32016e-05 
3.41846e-05 
3.23528e-05 
3.55153e-05 
2.72715e-05 
4.82972e-06 
0 
0 
2.16866e-05 
2.91316e-05 
3.51238e-05 
3.60332e-05 
2.81285e-05 
5.60863e-06 
0 
0 
2.17707e-05 
3.22954e-05 
3.26689e-05 
3.45532e-05 
2.95647e-05 
4.82965e-06 
0 
0 
2.21404e-05 
3.00373e-05 
2.87021e-05 
2.41882e-05 
2.49102e-05 
6.63883e-06 
0 
0 
4.08912e-06 
4.63894e-06 
5.042e-06 
5.68761e-06 
6.25311e-06 
1.68067e-06 
0 
0 
0 
0 
0 
0 
0 
0 
0 
0 
0 
0 
0 
0 
0 
0 
0 
0 
8.14797e-07 
1.35821e-06 
1.99624e-06 
1.78609e-06 
1.78101e-06 
2.4309e-07 
0 
0 
2.85355e-06 
2.32334e-06 
3.32874e-06 
2.35723e-06 
1.98331e-06 
3.60733e-07 
0 
0 
1.9416e-06 
2.59366e-06 
3.44653e-06 
3.95078e-06 
2.80324e-06 
5.45545e-07 
0 
0 
2.25475e-06 
2.92258e-06 
2.81915e-06 
3.68802e-06 
2.46429e-06 
5.69307e-07 
0 
0 
1.40057e-06 
2.93711e-06 
2.46087e-06 
1.5652e-06 
1.3488e-06 
2.65671e-07 
0 
0 
2.62341e-07 
5.08361e-07 
1.98008e-07 
3.76912e-07 
2.53993e-07 
9.57031e-08 
0 
0 
0 
0 
0 
0 
0 
0 
0 
0 
0 
0 
0 
0 
0 
0 
0 
0 
0 
0 
0 
0 
0 
0 
0 
0 
0 
0 
0 
0 
0 
0 
0 
0 
0 
0 
0 
0 
0 
0 
0 
0 
0 
0 
0 
0 
0 
0 
0 
0 
0 
0 
0 
0 
0 
0 
0 
0 
0 
0 
0 
0 
0 
0 
0 
0 
0 
0 
0 
0 
0 
0 
0 
0 
0 
0 
0 
0 
0 
0 
0 
0 
0 
0 
0 
0 
0 
0 
0 
0 
0 
0 
0 
0 
0 
0 
0 
0 
0 
0 
0 
0 
0 
0 
0 
0 
0 
0 
0 
0 
0 
0 
0 
0 
0 
0 
0 
0 
0 
0 
0 
0 
0 
0 
0 
0 
0 
0 
0 
0 
0 
0 
0 
0 
0 
0 
0 
0 
0 
0 
0 
0 
0 
0 
0 
0 
SCALARS n_group_001_error double 1
LOOKUP_TABLE default
0.133531 
0.119171 
0.102399 
0.111063 
0.120843 
0.190672 
0 
0 
0.10824 
0.0993922 
0.0920094 
0.0941062 
0.100174 
0.190661 
0 
0 
0.11189 
0.0869662 
0.0862332 
0.0913295 
0.101118 
0.185926 
0 
0 
0.115834 
0.0887464 
0.085955 
0.0884957 
0.0969628 
0.176808 
0 
0 
0.108049 
0.0987204 
0.103182 
0.100819 
0.108104 
0.178051 
0 
0 
0.211265 
0.184892 
0.186442 
0.201903 
0.183261 
0.378842 
0 
0 
0 
0 
0 
0 
0 
0 
0 
0 
0 
0 
0 
0 
0 
0 
0 
0 
0.0647579 
0.0536608 
0.0550727 
0.0550002 
0.0601706 
0.103818 
0 
0 
0.0577018 
0.0451234 
0.0467475 
0.0461596 
0.0513628 
0.0862041 
0 
0 
0.053002 
0.0455537 
0.045159 
0.0439913 
0.0495867 
0.0817048 
0 
0 
0.0531238 
0.0449851 
0.0438437 
0.0457463 
0.0485982 
0.0790397 
0 
0 
0.0561198 
0.0501869 
0.0504549 
0.0504213 
0.0561383 
0.0970375 
0 
0 
0.0972606 
0.0960292 
0.0868335 
0.0821303 
0.09987 
0.174463 
0 
0 
0 
0 
0 
0 
0 
0 
0 
0 
0 
0 
0 
0 
0 
0 
0 
0 
0.0534722 
0.0418123 
0.0403012 
0.0416818 
0.0480266 
0.086994 
0 
0 
0.0426311 
0.0343148 
0.0321402 
0.0334434 
0.0378089 
0.0648406 
0 
0 
0.0405808 
0.0320619 
0.0303128 
0.032389 
0.0362859 
0.0601098 
0 
0 
0.0410835 
0.0327266 
0.0311703 
0.0321834 
0.0383086 
0.0609183 
0 
0 
0.0485638 
0.0387717 
0.0371019 
0.0374539 
0.043824 
0.0792211 
0 
0 
0.084594 
0.0723921 
0.063844 
0.062392 
0.0776248 
0.144341 
0 
0 
0 
0 
0 
0 
0 
0 
0 
0 
0 
0 
0 
0 
0 
0 
0 
0 
0.0611922 
0.0495045 
0.0484846 
0.0504282 
0.0552486 
0.0980823 
0 
0 
0.0494008 
0.0406135 
0.0380227 
0.0395998 
0.0440877 
0.0700599 
0 
0 
0.0458599 
0.0377513 
0.037334 
0.0383182 
0.0436071 
0.0679924 
0 
0 
0.0481431 
0.0384404 
0.0369509 
0.0375615 
0.0451291 
0.0697346 
0 
0 
0.0555746 
0.0437842 
0.0424865 
0.0428679 
0.0498162 
0.0884025 
0 
0 
0.0959055 
0.0776828 
0.0708095 
0.0708001 
0.0825472 
0.167856 
0 
0 
0 
0 
0 
0 
0 
0 
0 
0 
0 
0 
0 
0 
0 
0 
0 
0 
0.106258 
0.0896575 
0.0912725 
0.0923747 
0.0969874 
0.162043 
0 
0 
0.087565 
0.0758833 
0.0717904 
0.0688635 
0.081045 
0.138086 
0 
0 
0.0867623 
0.0773766 
0.0669012 
0.0704691 
0.0766962 
0.149456 
0 
0 
0.0876162 
0.0753249 
0.067704 
0.0695351 
0.0790102 
0.13866 
0 
0 
0.0966875 
0.0790439 
0.0807435 
0.0819681 
0.0885786 
0.144315 
0 
0 
0.191209 
0.174867 
0.141384 
0.139576 
0.155838 
0.252746 
0 
0 
0 
0 
0 
0 
0 
0 
0 
0 
0 
0 
0 
0 
0 
0 
0 
0 
0.258986 
0.249862 
0.198468 
0.190835 
0.210731 
0.524598 
0 
0 
0.171578 
0.194176 
0.158733 
0.169702 
0.192831 
0.377537 
0 
0 
0.200592 
0.162534 
0.135019 
0.131355 
0.174398 
0.321296 
0 
0 
0.208047 
0.151224 
0.154898 
0.154898 
0.183175 
0.299556 
0 
0 
0.263909 
0.18468 
0.165507 
0.190988 
0.206922 
0.455272 
0 
0 
0.46207 
0.343387 
0.62985 
0.432082 
0.358733 
0.543148 
0 
0 
0 
0 
0 
0 
0 
0 
0 
0 
0 
0 
0 
0 
0 
0 
0 
0 
0 
0 
0 
0 
0 
0 
0 
0 
0 
0 
0 
0 
0 
0 
0 
0 
0 
0 
0 
0 
0 
0 
0 
0 
0 
0 
0 
0 
0 
0 
0 
0 
0 
0 
0 
0 
0 
0 
0 
0 
0 
0 
0 
0 
0 
0 
0 
0 
0 
0 
0 
0 
0 
0 
0 
0 
0 
0 
0 
0 
0 
0 
0 
0 
0 
0 
0 
0 
0 
0 
0 
0 
0 
0 
0 
0 
0 
0 
0 
0 
0 
0 
0 
0 
0 
0 
0 
0 
0 
0 
0 
0 
0 
0 
0 
0 
0 
0 
0 
0 
0 
0 
0 
0 
0 
0 
0 
0 
0 
0 
0 
0 
0 
0 
0 
0 
0 
0 
0 
0 
0 
0 
0 
0 
0 
0 
0 
0 
SCALARS n_group_002 double 1
LOOKUP_TABLE default
5.15333e-06 
5.90562e-06 
6.78457e-06 
6.14706e-06 
4.58035e-06 
6.86224e-07 
0 
0 
6.6342e-06 
1.11402e-05 
1.2678e-05 
1.26499e-05 
9.16144e-06 
2.41569e-06 
0 
0 
9.86278e-06 
1.35734e-05 
1.28698e-05 
1.30675e-05 
1.0312e-05 
1.56941e-06 
0 
0 
8.57813e-06 
1.22319e-05 
1.25853e-05 
1.06827e-05 
1.21808e-05 
1.94557e-06 
0 
0 
4.71566e-06 
7.93475e-06 
9.12454e-06 
9.36019e-06 
9.98748e-06 
1.50792e-06 
0 
0 
8.78488e-07 
1.64084e-06 
1.5847e-06 
1.80068e-06 
2.22973e-06 
4.43982e-07 
0 
0 
0 
0 
0 
0 
0 
0 
0 
0 
0 
0 
0 
0 
0 
0 
0 
0 
2.09965e-05 
2.56165e-05 
2.85794e-05 
2.98079e-05 
2.56834e-05 
4.49434e-06 
0 
0 
3.08391e-05 
4.04806e-05 
4.64359e-05 
4.12755e-05 
3.82867e-05 
9.26639e-06 
0 
0 
3.37007e-05 
5.11528e-05 
4.45085e-05 
4.39221e-05 
3.38001e-05 
8.41664e-06 
0 
0 
3.52081e-05 
5.35052e-05 
4.75568e-05 
3.973e-05 
3.63944e-05 
9.69252e-06 
0 
0 
2.57748e-05 
3.61019e-05 
3.85642e-05 
3.27996e-05 
3.37805e-05 
6.06193e-06 
0 
0 
4.90161e-06 
7.60774e-06 
7.07149e-06 
5.48038e-06 
5.56527e-06 
9.83699e-07 
0 
0 
0 
0 
0 
0 
0 
0 
0 
0 
0 
0 
0 
0 
0 
0 
0 
0 
3.13237e-05 
5.19843e-05 
6.23609e-05 
5.93146e-05 
4.27862e-05 
7.46811e-06 
0 
0 
5.61607e-05 
8.90052e-05 
9.43171e-05 
9.37819e-05 
6.81263e-05 
1.14363e-05 
0 
0 
6.51664e-05 
0.00010123 
0.000109856 
0.000103764 
8.36278e-05 
1.67972e-05 
0 
0 
5.59197e-05 
9.18319e-05 
0.000107749 
9.64978e-05 
7.36239e-05 
1.36822e-05 
0 
0 
3.81956e-05 
6.33286e-05 
7.32865e-05 
7.23278e-05 
5.43212e-05 
1.14986e-05 
0 
0 
8.0328e-06 
1.17122e-05 
1.32686e-05 
1.28543e-05 
8.45627e-06 
1.57514e-06 
0 
0 
0 
0 
0 
0 
0 
0 
0 
0 
0 
0 
0 
0 
0 
0 
0 
0 
2.61316e-05 
3.95874e-05 
4.45812e-05 
4.26311e-05 
3.17124e-05 
5.63474e-06 
0 
0 
4.006e-05 
6.53121e-05 
6.74427e-05 
6.64746e-05 
5.23132e-05 
1.03896e-05 
0 
0 
4.89628e-05 
6.71375e-05 
6.93979e-05 
6.39799e-05 
5.75356e-05 
1.10512e-05 
0 
0 
3.96135e-05 
6.50642e-05 
7.30147e-05 
6.41821e-05 
4.64966e-05 
9.59508e-06 
0 
0 
2.76568e-05 
4.68536e-05 
5.73729e-05 
5.19221e-05 
4.1245e-05 
7.3074e-06 
0 
0 
4.86806e-06 
8.51031e-06 
1.11441e-05 
9.33355e-06 
8.19885e-06 
1.61869e-06 
0 
0 
0 
0 
0 
0 
0 
0 
0 
0 
0 
0 
0 
0 
0 
0 
0 
0 
9.94422e-06 
1.37087e-05 
1.47001e-05 
1.35612e-05 
1.15506e-05 
2.82086e-06 
0 
0 
1.22934e-05 
1.73308e-05 
1.92608e-05 
1.72577e-05 
1.53205e-05 
1.98574e-06 
0 
0 
1.4066e-05 
1.59161e-05 
1.84111e-05 
2.05015e-05 
1.33437e-05 
2.28212e-06 
0 
0 
1.03273e-05 
1.83889e-05 
2.25899e-05 
1.65444e-05 
1.46263e-05 
2.51958e-06 
0 
0 
9.32262e-06 
1.61185e-05 
1.57326e-05 
1.34608e-05 
1.41305e-05 
3.05956e-06 
0 
0 
2.08962e-06 
2.32383e-06 
2.61053e-06 
2.56442e-06 
3.55268e-06 
1.205e-06 
0 
0 
0 
0 
0 
0 
0 
0 
0 
0 
0 
0 
0 
0 
0 
0 
0 
0 
1.47629e-06 
1.1882e-06 
1.50205e-06 
1.8678e-06 
1.31509e-06 
4.1054e-07 
0 
0 
1.17327e-06 
1.70962e-06 
2.54028e-06 
1.96002e-06 
1.56413e-06 
3.78029e-07 
0 
0 
8.07159e-07 
1.50411e-06 
2.32885e-06 
2.51009e-06 
1.41724e-06 
1.13199e-07 
0 
0 
1.01034e-06 
2.70455e-06 
2.13117e-06 
1.88368e-06 
1.28879e-06 
3.82869e-07 
0 
0 
1.13778e-06 
1.38502e-06 
1.84717e-06 
1.33382e-06 
1.54458e-06 
9.13162e-08 
0 
0 
1.76304e-07 
2.21346e-07 
2.34737e-07 
3.69631e-07 
2.75466e-07 
1.482e-08 
0 
0 
0 
0 
0 
0 
0 
0 
0 
0 
0 
0 
0 
0 
0 
0 
0 
0 
0 
0 
0 
0 
0 
0 
0 
0 
0 
0 
0 
0 
0 
0 
0 
0 
0 
0 
0 
0 
0 
0 
0 
0 
0 
0 
0 
0 
0 
0 
0 
0 
0 
0 
0 
0 
0 
0 
0 
0 
0 
0 
0 
0 
0 
0 
0 
0 
0 
0 
0 
0 
0 
0 
0 
0 
0 
0 
0 
0 
0 
0 
0 
0 
0 
0 
0 
0 
0 
0 
0 
0 
0 
0 
0 
0 
0 
0 
0 
0 
0 
0 
0 
0 
0 
0 
0 
0 
0 
0 
0 
0 
0 
0 
0 
0 
0 
0 
0 
0 
0 
0 
0 
0 
0 
0 
0 
0 
0 
0 
0 
0 
0 
0 
0 
0 
0 
0 
0 
0 
0 
0 
0 
0 
0 
0 
0 
0 
SCALARS n_group_002_error double 1
LOOKUP_TABLE default
0.190627 
0.186394 
0.165041 
0.172197 
0.184291 
0.334498 
0 
0 
0.162609 
0.133785 
0.128294 
0.127903 
0.175708 
0.239694 
0 
0 
0.150746 
0.116929 
0.114671 
0.116803 
0.142799 
0.261612 
0 
0 
0.144439 
0.122803 
0.115482 
0.121427 
0.135345 
0.298097 
0 
0 
0.207639 
0.172871 
0.145789 
0.148892 
0.148979 
0.267531 
0 
0 
0.505712 
0.249811 
0.264984 
0.254629 
0.263134 
0.448821 
0 
0 
0 
0 
0 
0 
0 
0 
0 
0 
0 
0 
0 
0 
0 
0 
0 
0 
0.0864469 
0.0795121 
0.0840256 
0.0825772 
0.0784772 
0.144755 
0 
0 
0.0797194 
0.0756418 
0.0695551 
0.0715238 
0.0767348 
0.116516 
0 
0 
0.0763955 
0.0698884 
0.0712823 
0.0737207 
0.0778073 
0.127401 
0 
0 
0.0755554 
0.066186 
0.071049 
0.0745567 
0.0719778 
0.108916 
0 
0 
0.0790824 
0.0735531 
0.0769922 
0.0780299 
0.0731453 
0.128034 
0 
0 
0.143848 
0.118621 
0.125976 
0.129726 
0.132675 
0.259284 
0 
0 
0 
0 
0 
0 
0 
0 
0 
0 
0 
0 
0 
0 
0 
0 
0 
0 
0.0696415 
0.0546102 
0.0496374 
0.0518761 
0.0610216 
0.124498 
0 
0 
0.055415 
0.0434085 
0.0404523 
0.0416153 
0.0494721 
0.0898623 
0 
0 
0.0496544 
0.0408699 
0.0390447 
0.0393982 
0.0436603 
0.0804609 
0 
0 
0.051939 
0.0413403 
0.0389891 
0.0402954 
0.0461721 
0.0909034 
0 
0 
0.0635049 
0.0493629 
0.0469942 
0.0472067 
0.054253 
0.100912 
0 
0 
0.116244 
0.0928464 
0.0909716 
0.0890844 
0.107278 
0.211315 
0 
0 
0 
0 
0 
0 
0 
0 
0 
0 
0 
0 
0 
0 
0 
0 
0 
0 
0.074861 
0.064176 
0.0617927 
0.0628802 
0.0731471 
0.131646 
0 
0 
0.0640022 
0.0566228 
0.0551921 
0.0560845 
0.0582634 
0.0992683 
0 
0 
0.0606664 
0.0555689 
0.0555119 
0.0580996 
0.0567565 
0.0990913 
0 
0 
0.0633596 
0.0547995 
0.056244 
0.0572026 
0.061872 
0.105876 
0 
0 
0.0736952 
0.0587607 
0.0590837 
0.0577815 
0.0623508 
0.115923 
0 
0 
0.142218 
0.110372 
0.105159 
0.0995627 
0.115458 
0.227096 
0 
0 
0 
0 
0 
0 
0 
0 
0 
0 
0 
0 
0 
0 
0 
0 
0 
0 
0.136125 
0.127704 
0.122398 
0.126351 
0.130059 
0.208201 
0 
0 
0.140322 
0.108343 
0.104288 
0.106485 
0.129421 
0.233804 
0 
0 
0.125529 
0.107768 
0.105511 
0.109193 
0.119698 
0.22482 
0 
0 
0.153482 
0.11413 
0.0933008 
0.109908 
0.132135 
0.208983 
0 
0 
0.145181 
0.126038 
0.119213 
0.130518 
0.123866 
0.210655 
0 
0 
0.248157 
0.210184 
0.207033 
0.195298 
0.165743 
0.264161 
0 
0 
0 
0 
0 
0 
0 
0 
0 
0 
0 
0 
0 
0 
0 
0 
0 
0 
0.339204 
0.275345 
0.224462 
0.255066 
0.350237 
0.5987 
0 
0 
0.266183 
0.221555 
0.206025 
0.214263 
0.237827 
0.396344 
0 
0 
0.346754 
0.218098 
0.188123 
0.206707 
0.267623 
0.465384 
0 
0 
0.348641 
0.212664 
0.204223 
0.248442 
0.273135 
0.42142 
0 
0 
0.353629 
0.260286 
0.258744 
0.328043 
0.272959 
0.967847 
0 
0 
0.597729 
0.501298 
0.512749 
0.575936 
0.597838 
0.999999 
0 
0 
0 
0 
0 
0 
0 
0 
0 
0 
0 
0 
0 
0 
0 
0 
0 
0 
0 
0 
0 
0 
0 
0 
0 
0 
0 
0 
0 
0 
0 
0 
0 
0 
0 
0 
0 
0 
0 
0 
0 
0 
0 
0 
0 
0 
0 
0 
0 
0 
0 
0 
0 
0 
0 
0 
0 
0 
0 
0 
0 
0 
0 
0 
0 
0 
0 
0 
0 
0 
0 
0 
0 
0 
0 
0 
0 
0 
0 
0 
0 
0 
0 
0 
0 
0 
0 
0 
0 
0 
0 
0 
0 
0 
0 
0 
0 
0 
0 
0 
0 
0 
0 
0 
0 
0 
0 
0 
0 
0 
0 
0 
0 
0 
0 
0 
0 
0 
0 
0 
0 
0 
0 
0 
0 
0 
0 
0 
0 
0 
0 
0 
0 
0 
0 
0 
0 
0 
0 
0 
0 
0 
0 
0 
0 
0 
SCALARS n_group_003 double 1
LOOKUP_TABLE default
1.45407e-06 
1.91712e-06 
1.48047e-06 
8.91504e-07 
5.52072e-07 
2.56624e-07 
0 
0 
7.4681e-07 
3.06155e-06 
1.72059e-06 
2.40452e-06 
1.92447e-06 
1.80595e-07 
0 
0 
1.32127e-06 
2.0389e-06 
4.6941e-06 
3.36296e-06 
1.20411e-06 
1.7798e-07 
0 
0 
1.37829e-06 
1.6331e-06 
3.31746e-06 
2.55122e-06 
2.2924e-06 
3.17526e-07 
0 
0 
3.93339e-07 
1.08598e-06 
9.9001e-07 
1.43586e-06 
1.37706e-06 
0 
0 
0 
9.30011e-08 
3.68042e-07 
2.15867e-07 
2.06139e-07 
2.46047e-08 
0 
0 
0 
0 
0 
0 
0 
0 
0 
0 
0 
0 
0 
0 
0 
0 
0 
0 
0 
3.24071e-06 
3.47655e-06 
3.81736e-06 
4.53735e-06 
3.61484e-06 
5.71969e-07 
0 
0 
3.72729e-06 
6.32249e-06 
5.93142e-06 
6.82416e-06 
4.87387e-06 
8.73107e-07 
0 
0 
3.538e-06 
8.0428e-06 
6.54604e-06 
7.12886e-06 
5.75222e-06 
9.82362e-07 
0 
0 
5.68449e-06 
8.36889e-06 
8.93704e-06 
7.39335e-06 
4.20777e-06 
6.54192e-07 
0 
0 
3.38721e-06 
4.49812e-06 
5.49542e-06 
5.6125e-06 
5.17754e-06 
1.01624e-06 
0 
0 
8.52047e-07 
7.51487e-07 
1.45611e-06 
1.37255e-06 
4.12738e-07 
2.30935e-07 
0 
0 
0 
0 
0 
0 
0 
0 
0 
0 
0 
0 
0 
0 
0 
0 
0 
0 
4.5332e-06 
5.8701e-06 
7.05119e-06 
8.58716e-06 
5.38089e-06 
8.33459e-07 
0 
0 
5.57128e-06 
1.13379e-05 
1.27526e-05 
1.21106e-05 
8.31351e-06 
1.32774e-06 
0 
0 
7.52838e-06 
1.38143e-05 
1.63108e-05 
1.45788e-05 
1.02849e-05 
1.7604e-06 
0 
0 
7.13929e-06 
1.29512e-05 
1.44685e-05 
1.33238e-05 
7.78568e-06 
1.58104e-06 
0 
0 
4.55294e-06 
7.21475e-06 
1.01199e-05 
8.99481e-06 
5.91239e-06 
6.26202e-07 
0 
0 
5.56902e-07 
1.25739e-06 
1.89064e-06 
1.91391e-06 
9.62004e-07 
4.70595e-07 
0 
0 
0 
0 
0 
0 
0 
0 
0 
0 
0 
0 
0 
0 
0 
0 
0 
0 
2.44297e-06 
5.41172e-06 
6.49181e-06 
5.78281e-06 
3.96415e-06 
8.98821e-07 
0 
0 
4.52505e-06 
8.51288e-06 
9.06168e-06 
8.05713e-06 
6.77654e-06 
1.52155e-06 
0 
0 
6.32858e-06 
1.01293e-05 
9.40572e-06 
7.85637e-06 
5.86972e-06 
1.26292e-06 
0 
0 
5.42953e-06 
5.25328e-06 
8.81481e-06 
9.48345e-06 
7.10679e-06 
1.38059e-06 
0 
0 
3.40351e-06 
6.3185e-06 
6.76182e-06 
8.41261e-06 
4.40347e-06 
6.67549e-07 
0 
0 
1.28675e-06 
8.69541e-07 
1.30054e-06 
1.63587e-06 
4.80233e-07 
4.74021e-08 
0 
0 
0 
0 
0 
0 
0 
0 
0 
0 
0 
0 
0 
0 
0 
0 
0 
0 
5.3376e-07 
1.40589e-06 
2.11899e-06 
1.63005e-06 
2.01066e-06 
3.6045e-07 
0 
0 
2.12467e-06 
3.00018e-06 
3.66938e-06 
1.61362e-06 
3.51034e-06 
5.25457e-07 
0 
0 
1.99639e-06 
3.61863e-06 
3.14956e-06 
3.26169e-06 
1.87072e-06 
4.29273e-07 
0 
0 
1.75834e-06 
2.21159e-06 
3.72759e-06 
3.8003e-06 
2.42513e-06 
4.90276e-07 
0 
0 
1.01593e-06 
1.5266e-06 
2.58183e-06 
2.31784e-06 
1.99681e-06 
2.33948e-07 
0 
0 
2.07712e-07 
4.46405e-07 
9.84063e-07 
3.54259e-07 
8.50055e-08 
0 
0 
0 
0 
0 
0 
0 
0 
0 
0 
0 
0 
0 
0 
0 
0 
0 
0 
0 
1.85086e-07 
4.01686e-07 
5.55597e-07 
1.7544e-07 
2.66272e-07 
7.87664e-08 
0 
0 
1.69688e-07 
1.04426e-07 
2.37215e-07 
5.14867e-07 
1.71518e-07 
2.00932e-07 
0 
0 
0 
2.41864e-07 
8.87925e-07 
1.03005e-06 
3.53902e-07 
1.39859e-07 
0 
0 
2.12858e-07 
3.74442e-07 
2.99985e-07 
4.06814e-07 
1.38639e-07 
6.36034e-08 
0 
0 
0 
7.32813e-08 
3.21693e-07 
6.70495e-07 
4.76165e-07 
7.54283e-08 
0 
0 
5.59823e-08 
0 
7.95288e-08 
0 
7.02303e-08 
0 
0 
0 
0 
0 
0 
0 
0 
0 
0 
0 
0 
0 
0 
0 
0 
0 
0 
0 
0 
0 
0 
0 
0 
0 
0 
0 
0 
0 
0 
0 
0 
0 
0 
0 
0 
0 
0 
0 
0 
0 
0 
0 
0 
0 
0 
0 
0 
0 
0 
0 
0 
0 
0 
0 
0 
0 
0 
0 
0 
0 
0 
0 
0 
0 
0 
0 
0 
0 
0 
0 
0 
0 
0 
0 
0 
0 
0 
0 
0 
0 
0 
0 
0 
0 
0 
0 
0 
0 
0 
0 
0 
0 
0 
0 
0 
0 
0 
0 
0 
0 
0 
0 
0 
0 
0 
0 
0 
0 
0 
0 
0 
0 
0 
0 
0 
0 
0 
0 
0 
0 
0 
0 
0 
0 
0 
0 
0 
0 
0 
0 
0 
0 
0 
0 
0 
0 
0 
0 
0 
0 
0 
0 
0 
0 
0 
0 
SCALARS n_group_003_error double 1
LOOKUP_TABLE default
0.425235 
0.358318 
0.350732 
0.386285 
0.420787 
0.547528 
0 
0 
0.428664 
0.306332 
0.301096 
0.275208 
0.326675 
0.701861 
0 
0 
0.351923 
0.299774 
0.229354 
0.249064 
0.398817 
0.602278 
0 
0 
0.356356 
0.330655 
0.244535 
0.261983 
0.307669 
0.62721 
0 
0 
0.53872 
0.422306 
0.297758 
0.337103 
0.376053 
0 
0 
0 
0.999999 
0.875129 
0.631467 
0.660287 
0.999999 
0 
0 
0 
0 
0 
0 
0 
0 
0 
0 
0 
0 
0 
0 
0 
0 
0 
0 
0 
0.177862 
0.212374 
0.215355 
0.196355 
0.195613 
0.348911 
0 
0 
0.179908 
0.187142 
0.187199 
0.179982 
0.186958 
0.252452 
0 
0 
0.211605 
0.166071 
0.181603 
0.17355 
0.196451 
0.305855 
0 
0 
0.16941 
0.157977 
0.161001 
0.186396 
0.192065 
0.372584 
0 
0 
0.177472 
0.187396 
0.186655 
0.195864 
0.192559 
0.280171 
0 
0 
0.345447 
0.318942 
0.262628 
0.271106 
0.339331 
0.449427 
0 
0 
0 
0 
0 
0 
0 
0 
0 
0 
0 
0 
0 
0 
0 
0 
0 
0 
0.187777 
0.127103 
0.135405 
0.12378 
0.158667 
0.254401 
0 
0 
0.137132 
0.104382 
0.0984415 
0.0982656 
0.109584 
0.246158 
0 
0 
0.133676 
0.096557 
0.085028 
0.0892774 
0.107691 
0.209272 
0 
0 
0.1274 
0.0981556 
0.0923922 
0.0943212 
0.124738 
0.207063 
0 
0 
0.169654 
0.12692 
0.107003 
0.115822 
0.141201 
0.276518 
0 
0 
0.385992 
0.288151 
0.223188 
0.207291 
0.261948 
0.393719 
0 
0 
0 
0 
0 
0 
0 
0 
0 
0 
0 
0 
0 
0 
0 
0 
0 
0 
0.198275 
0.149256 
0.140465 
0.156479 
0.179611 
0.268067 
0 
0 
0.168627 
0.137828 
0.141366 
0.147836 
0.159461 
0.233654 
0 
0 
0.140461 
0.134159 
0.141955 
0.151729 
0.158781 
0.265838 
0 
0 
0.14569 
0.16421 
0.133376 
0.139401 
0.14432 
0.250705 
0 
0 
0.190026 
0.141339 
0.14855 
0.135977 
0.18014 
0.429449 
0 
0 
0.27963 
0.273106 
0.27754 
0.214523 
0.362131 
0.574978 
0 
0 
0 
0 
0 
0 
0 
0 
0 
0 
0 
0 
0 
0 
0 
0 
0 
0 
0.478619 
0.349641 
0.343917 
0.346259 
0.299249 
0.599706 
0 
0 
0.355775 
0.258962 
0.238606 
0.314176 
0.270344 
0.436611 
0 
0 
0.261442 
0.237259 
0.238854 
0.241371 
0.326786 
0.58292 
0 
0 
0.332597 
0.307572 
0.222625 
0.237671 
0.28614 
0.515929 
0 
0 
0.357484 
0.384359 
0.266082 
0.301551 
0.368837 
0.514098 
0 
0 
0.549671 
0.475515 
0.403181 
0.479829 
0.851955 
0 
0 
0 
0 
0 
0 
0 
0 
0 
0 
0 
0 
0 
0 
0 
0 
0 
0 
0 
0.764589 
0.592971 
0.483126 
0.643626 
0.668104 
0.999999 
0 
0 
0.70715 
0.597207 
0.488305 
0.40839 
0.536164 
0.594546 
0 
0 
0 
0.544213 
0.431348 
0.379963 
0.402731 
0.793188 
0 
0 
0.584241 
0.48618 
0.528619 
0.617767 
0.722925 
0.837279 