# vtk DataFile Version 3.0
MOAB 4.6.0pre
ASCII
DATASET UNSTRUCTURED_GRID
POINTS 462 double
-151 -151 -151
-25 -151 -151
-8.333333333 -151 -151
8.333333333 -151 -151
25 -151 -151
151 -151 -151
-151 -25 -151
-25 -25 -151
-8.333333333 -25 -151
8.333333333 -25 -151
25 -25 -151
151 -25 -151
-151 -12.5 -151
-25 -12.5 -151
-8.333333333 -12.5 -151
8.333333333 -12.5 -151
25 -12.5 -151
151 -12.5 -151
-151 0 -151
-25 0 -151
-8.333333333 0 -151
8.333333333 0 -151
25 0 -151
151 0 -151
-151 12.5 -151
-25 12.5 -151
-8.333333333 12.5 -151
8.333333333 12.5 -151
25 12.5 -151
151 12.5 -151
-151 25 -151
-25 25 -151
-8.333333333 25 -151
8.333333333 25 -151
25 25 -151
151 25 -151
-151 151 -151
-25 151 -151
-8.333333333 151 -151
8.333333333 151 -151
25 151 -151
151 151 -151
-151 -151 -100
-25 -151 -100
-8.333333333 -151 -100
8.333333333 -151 -100
25 -151 -100
151 -151 -100
-151 -25 -100
-25 -25 -100
-8.333333333 -25 -100
8.333333333 -25 -100
25 -25 -100
151 -25 -100
-151 -12.5 -100
-25 -12.5 -100
-8.333333333 -12.5 -100
8.333333333 -12.5 -100
25 -12.5 -100
151 -12.5 -100
-151 0 -100
-25 0 -100
-8.333333333 0 -100
8.333333333 0 -100
25 0 -100
151 0 -100
-151 12.5 -100
-25 12.5 -100
-8.333333333 12.5 -100
8.333333333 12.5 -100
25 12.5 -100
151 12.5 -100
-151 25 -100
-25 25 -100
-8.333333333 25 -100
8.333333333 25 -100
25 25 -100
151 25 -100
-151 151 -100
-25 151 -100
-8.333333333 151 -100
8.333333333 151 -100
25 151 -100
151 151 -100
-151 -151 -80
-25 -151 -80
-8.333333333 -151 -80
8.333333333 -151 -80
25 -151 -80
151 -151 -80
-151 -25 -80
-25 -25 -80
-8.333333333 -25 -80
8.333333333 -25 -80
25 -25 -80
151 -25 -80
-151 -12.5 -80
-25 -12.5 -80
-8.333333333 -12.5 -80
8.333333333 -12.5 -80
25 -12.5 -80
151 -12.5 -80
-151 0 -80
-25 0 -80
-8.333333333 0 -80
8.333333333 0 -80
25 0 -80
151 0 -80
-151 12.5 -80
-25 12.5 -80
-8.333333333 12.5 -80
8.333333333 12.5 -80
25 12.5 -80
151 12.5 -80
-151 25 -80
-25 25 -80
-8.333333333 25 -80
8.333333333 25 -80
25 25 -80
151 25 -80
-151 151 -80
-25 151 -80
-8.333333333 151 -80
8.333333333 151 -80
25 151 -80
151 151 -80
-151 -151 -60
-25 -151 -60
-8.333333333 -151 -60
8.333333333 -151 -60
25 -151 -60
151 -151 -60
-151 -25 -60
-25 -25 -60
-8.333333333 -25 -60
8.333333333 -25 -60
25 -25 -60
151 -25 -60
-151 -12.5 -60
-25 -12.5 -60
-8.333333333 -12.5 -60
8.333333333 -12.5 -60
25 -12.5 -60
151 -12.5 -60
-151 0 -60
-25 0 -60
-8.333333333 0 -60
8.333333333 0 -60
25 0 -60
151 0 -60
-151 12.5 -60
-25 12.5 -60
-8.333333333 12.5 -60
8.333333333 12.5 -60
25 12.5 -60
151 12.5 -60
-151 25 -60
-25 25 -60
-8.333333333 25 -60
8.333333333 25 -60
25 25 -60
151 25 -60
-151 151 -60
-25 151 -60
-8.333333333 151 -60
8.333333333 151 -60
25 151 -60
151 151 -60
-151 -151 -40
-25 -151 -40
-8.333333333 -151 -40
8.333333333 -151 -40
25 -151 -40
151 -151 -40
-151 -25 -40
-25 -25 -40
-8.333333333 -25 -40
8.333333333 -25 -40
25 -25 -40
151 -25 -40
-151 -12.5 -40
-25 -12.5 -40
-8.333333333 -12.5 -40
8.333333333 -12.5 -40
25 -12.5 -40
151 -12.5 -40
-151 0 -40
-25 0 -40
-8.333333333 0 -40
8.333333333 0 -40
25 0 -40
151 0 -40
-151 12.5 -40
-25 12.5 -40
-8.333333333 12.5 -40
8.333333333 12.5 -40
25 12.5 -40
151 12.5 -40
-151 25 -40
-25 25 -40
-8.333333333 25 -40
8.333333333 25 -40
25 25 -40
151 25 -40
-151 151 -40
-25 151 -40
-8.333333333 151 -40
8.333333333 151 -40
25 151 -40
151 151 -40
-151 -151 -20
-25 -151 -20
-8.333333333 -151 -20
8.333333333 -151 -20
25 -151 -20
151 -151 -20
-151 -25 -20
-25 -25 -20
-8.333333333 -25 -20
8.333333333 -25 -20
25 -25 -20
151 -25 -20
-151 -12.5 -20
-25 -12.5 -20
-8.333333333 -12.5 -20
8.333333333 -12.5 -20
25 -12.5 -20
151 -12.5 -20
-151 0 -20
-25 0 -20
-8.333333333 0 -20
8.333333333 0 -20
25 0 -20
151 0 -20
-151 12.5 -20
-25 12.5 -20
-8.333333333 12.5 -20
8.333333333 12.5 -20
25 12.5 -20
151 12.5 -20
-151 25 -20
-25 25 -20
-8.333333333 25 -20
8.333333333 25 -20
25 25 -20
151 25 -20
-151 151 -20
-25 151 -20
-8.333333333 151 -20
8.333333333 151 -20
25 151 -20
151 151 -20
-151 -151 0
-25 -151 0
-8.333333333 -151 0
8.333333333 -151 0
25 -151 0
151 -151 0
-151 -25 0
-25 -25 0
-8.333333333 -25 0
8.333333333 -25 0
25 -25 0
151 -25 0
-151 -12.5 0
-25 -12.5 0
-8.333333333 -12.5 0
8.333333333 -12.5 0
25 -12.5 0
151 -12.5 0
-151 0 0
-25 0 0
-8.333333333 0 0
8.333333333 0 0
25 0 0
151 0 0
-151 12.5 0
-25 12.5 0
-8.333333333 12.5 0
8.333333333 12.5 0
25 12.5 0
151 12.5 0
-151 25 0
-25 25 0
-8.333333333 25 0
8.333333333 25 0
25 25 0
151 25 0
-151 151 0
-25 151 0
-8.333333333 151 0
8.333333333 151 0
25 151 0
151 151 0
-151 -151 20
-25 -151 20
-8.333333333 -151 20
8.333333333 -151 20
25 -151 20
151 -151 20
-151 -25 20
-25 -25 20
-8.333333333 -25 20
8.333333333 -25 20
25 -25 20
151 -25 20
-151 -12.5 20
-25 -12.5 20
-8.333333333 -12.5 20
8.333333333 -12.5 20
25 -12.5 20
151 -12.5 20
-151 0 20
-25 0 20
-8.333333333 0 20
8.333333333 0 20
25 0 20
151 0 20
-151 12.5 20
-25 12.5 20
-8.333333333 12.5 20
8.333333333 12.5 20
25 12.5 20
151 12.5 20
-151 25 20
-25 25 20
-8.333333333 25 20
8.333333333 25 20
25 25 20
151 25 20
-151 151 20
-25 151 20
-8.333333333 151 20
8.333333333 151 20
25 151 20
151 151 20
-151 -151 60
-25 -151 60
-8.333333333 -151 60
8.333333333 -151 60
25 -151 60
151 -151 60
-151 -25 60
-25 -25 60
-8.333333333 -25 60
8.333333333 -25 60
25 -25 60
151 -25 60
-151 -12.5 60
-25 -12.5 60
-8.333333333 -12.5 60
8.333333333 -12.5 60
25 -12.5 60
151 -12.5 60
-151 0 60
-25 0 60
-8.333333333 0 60
8.333333333 0 60
25 0 60
151 0 60
-151 12.5 60
-25 12.5 60
-8.333333333 12.5 60
8.333333333 12.5 60
25 12.5 60
151 12.5 60
-151 25 60
-25 25 60
-8.333333333 25 60
8.333333333 25 60
25 25 60
151 25 60
-151 151 60
-25 151 60
-8.333333333 151 60
8.333333333 151 60
25 151 60
151 151 60
-151 -151 100
-25 -151 100
-8.333333333 -151 100
8.333333333 -151 100
25 -151 100
151 -151 100
-151 -25 100
-25 -25 100
-8.333333333 -25 100
8.333333333 -25 100
25 -25 100
151 -25 100
-151 -12.5 100
-25 -12.5 100
-8.333333333 -12.5 100
8.333333333 -12.5 100
25 -12.5 100
151 -12.5 100
-151 0 100
-25 0 100
-8.333333333 0 100
8.333333333 0 100
25 0 100
151 0 100
-151 12.5 100
-25 12.5 100
-8.333333333 12.5 100
8.333333333 12.5 100
25 12.5 100
151 12.5 100
-151 25 100
-25 25 100
-8.333333333 25 100
8.333333333 25 100
25 25 100
151 25 100
-151 151 100
-25 151 100
-8.333333333 151 100
8.333333333 151 100
25 151 100
151 151 100
-151 -151 151
-25 -151 151
-8.333333333 -151 151
8.333333333 -151 151
25 -151 151
151 -151 151
-151 -25 151
-25 -25 151
-8.333333333 -25 151
8.333333333 -25 151
25 -25 151
151 -25 151
-151 -12.5 151
-25 -12.5 151
-8.333333333 -12.5 151
8.333333333 -12.5 151
25 -12.5 151
151 -12.5 151
-151 0 151
-25 0 151
-8.333333333 0 151
8.333333333 0 151
25 0 151
151 0 151
-151 12.5 151
-25 12.5 151
-8.333333333 12.5 151
8.333333333 12.5 151
25 12.5 151
151 12.5 151
-151 25 151
-25 25 151
-8.333333333 25 151
8.333333333 25 151
25 25 151
151 25 151
-151 151 151
-25 151 151
-8.333333333 151 151
8.333333333 151 151
25 151 151
151 151 151
CELLS 300 2700
8 0 1 7 6 42 43 49 48
8 1 2 8 7 43 44 50 49
8 2 3 9 8 44 45 51 50
8 3 4 10 9 45 46 52 51
8 4 5 11 10 46 47 53 52
8 6 7 13 12 48 49 55 54
8 7 8 14 13 49 50 56 55
8 8 9 15 14 50 51 57 56
8 9 10 16 15 51 52 58 57
8 10 11 17 16 52 53 59 58
8 12 13 19 18 54 55 61 60
8 13 14 20 19 55 56 62 61
8 14 15 21 20 56 57 63 62
8 15 16 22 21 57 58 64 63
8 16 17 23 22 58 59 65 64
8 18 19 25 24 60 61 67 66
8 19 20 26 25 61 62 68 67
8 20 21 27 26 62 63 69 68
8 21 22 28 27 63 64 70 69
8 22 23 29 28 64 65 71 70
8 24 25 31 30 66 67 73 72
8 25 26 32 31 67 68 74 73
8 26 27 33 32 68 69 75 74
8 27 28 34 33 69 70 76 75
8 28 29 35 34 70 71 77 76
8 30 31 37 36 72 73 79 78
8 31 32 38 37 73 74 80 79
8 32 33 39 38 74 75 81 80
8 33 34 40 39 75 76 82 81
8 34 35 41 40 76 77 83 82
8 42 43 49 48 84 85 91 90
8 43 44 50 49 85 86 92 91
8 44 45 51 50 86 87 93 92
8 45 46 52 51 87 88 94 93
8 46 47 53 52 88 89 95 94
8 48 49 55 54 90 91 97 96
8 49 50 56 55 91 92 98 97
8 50 51 57 56 92 93 99 98
8 51 52 58 57 93 94 100 99
8 52 53 59 58 94 95 101 100
8 54 55 61 60 96 97 103 102
8 55 56 62 61 97 98 104 103
8 56 57 63 62 98 99 105 104
8 57 58 64 63 99 100 106 105
8 58 59 65 64 100 101 107 106
8 60 61 67 66 102 103 109 108
8 61 62 68 67 103 104 110 109
8 62 63 69 68 104 105 111 110
8 63 64 70 69 105 106 112 111
8 64 65 71 70 106 107 113 112
8 66 67 73 72 108 109 115 114
8 67 68 74 73 109 110 116 115
8 68 69 75 74 110 111 117 116
8 69 70 76 75 111 112 118 117
8 70 71 77 76 112 113 119 118
8 72 73 79 78 114 115 121 120
8 73 74 80 79 115 116 122 121
8 74 75 81 80 116 117 123 122
8 75 76 82 81 117 118 124 123
8 76 77 83 82 118 119 125 124
8 84 85 91 90 126 127 133 132
8 85 86 92 91 127 128 134 133
8 86 87 93 92 128 129 135 134
8 87 88 94 93 129 130 136 135
8 88 89 95 94 130 131 137 136
8 90 91 97 96 132 133 139 138
8 91 92 98 97 133 134 140 139
8 92 93 99 98 134 135 141 140
8 93 94 100 99 135 136 142 141
8 94 95 101 100 136 137 143 142
8 96 97 103 102 138 139 145 144
8 97 98 104 103 139 140 146 145
8 98 99 105 104 140 141 147 146
8 99 100 106 105 141 142 148 147
8 100 101 107 106 142 143 149 148
8 102 103 109 108 144 145 151 150
8 103 104 110 109 145 146 152 151
8 104 105 111 110 146 147 153 152
8 105 106 112 111 147 148 154 153
8 106 107 113 112 148 149 155 154
8 108 109 115 114 150 151 157 156
8 109 110 116 115 151 152 158 157
8 110 111 117 116 152 153 159 158
8 111 112 118 117 153 154 160 159
8 112 113 119 118 154 155 161 160
8 114 115 121 120 156 157 163 162
8 115 116 122 121 157 158 164 163
8 116 117 123 122 158 159 165 164
8 117 118 124 123 159 160 166 165
8 118 119 125 124 160 161 167 166
8 126 127 133 132 168 169 175 174
8 127 128 134 133 169 170 176 175
8 128 129 135 134 170 171 177 176
8 129 130 136 135 171 172 178 177
8 130 131 137 136 172 173 179 178
8 132 133 139 138 174 175 181 180
8 133 134 140 139 175 176 182 181
8 134 135 141 140 176 177 183 182
8 135 136 142 141 177 178 184 183
8 136 137 143 142 178 179 185 184
8 138 139 145 144 180 181 187 186
8 139 140 146 145 181 182 188 187
8 140 141 147 146 182 183 189 188
8 141 142 148 147 183 184 190 189
8 142 143 149 148 184 185 191 190
8 144 145 151 150 186 187 193 192
8 145 146 152 151 187 188 194 193
8 146 147 153 152 188 189 195 194
8 147 148 154 153 189 190 196 195
8 148 149 155 154 190 191 197 196
8 150 151 157 156 192 193 199 198
8 151 152 158 157 193 194 200 199
8 152 153 159 158 194 195 201 200
8 153 154 160 159 195 196 202 201
8 154 155 161 160 196 197 203 202
8 156 157 163 162 198 199 205 204
8 157 158 164 163 199 200 206 205
8 158 159 165 164 200 201 207 206
8 159 160 166 165 201 202 208 207
8 160 161 167 166 202 203 209 208
8 168 169 175 174 210 211 217 216
8 169 170 176 175 211 212 218 217
8 170 171 177 176 212 213 219 218
8 171 172 178 177 213 214 220 219
8 172 173 179 178 214 215 221 220
8 174 175 181 180 216 217 223 222
8 175 176 182 181 217 218 224 223
8 176 177 183 182 218 219 225 224
8 177 178 184 183 219 220 226 225
8 178 179 185 184 220 221 227 226
8 180 181 187 186 222 223 229 228
8 181 182 188 187 223 224 230 229
8 182 183 189 188 224 225 231 230
8 183 184 190 189 225 226 232 231
8 184 185 191 190 226 227 233 232
8 186 187 193 192 228 229 235 234
8 187 188 194 193 229 230 236 235
8 188 189 195 194 230 231 237 236
8 189 190 196 195 231 232 238 237
8 190 191 197 196 232 233 239 238
8 192 193 199 198 234 235 241 240
8 193 194 200 199 235 236 242 241
8 194 195 201 200 236 237 243 242
8 195 196 202 201 237 238 244 243
8 196 197 203 202 238 239 245 244
8 198 199 205 204 240 241 247 246
8 199 200 206 205 241 242 248 247
8 200 201 207 206 242 243 249 248
8 201 202 208 207 243 244 250 249
8 202 203 209 208 244 245 251 250
8 210 211 217 216 252 253 259 258
8 211 212 218 217 253 254 260 259
8 212 213 219 218 254 255 261 260
8 213 214 220 219 255 256 262 261
8 214 215 221 220 256 257 263 262
8 216 217 223 222 258 259 265 264
8 217 218 224 223 259 260 266 265
8 218 219 225 224 260 261 267 266
8 219 220 226 225 261 262 268 267
8 220 221 227 226 262 263 269 268
8 222 223 229 228 264 265 271 270
8 223 224 230 229 265 266 272 271
8 224 225 231 230 266 267 273 272
8 225 226 232 231 267 268 274 273
8 226 227 233 232 268 269 275 274
8 228 229 235 234 270 271 277 276
8 229 230 236 235 271 272 278 277
8 230 231 237 236 272 273 279 278
8 231 232 238 237 273 274 280 279
8 232 233 239 238 274 275 281 280
8 234 235 241 240 276 277 283 282
8 235 236 242 241 277 278 284 283
8 236 237 243 242 278 279 285 284
8 237 238 244 243 279 280 286 285
8 238 239 245 244 280 281 287 286
8 240 241 247 246 282 283 289 288
8 241 242 248 247 283 284 290 289
8 242 243 249 248 284 285 291 290
8 243 244 250 249 285 286 292 291
8 244 245 251 250 286 287 293 292
8 252 253 259 258 294 295 301 300
8 253 254 260 259 295 296 302 301
8 254 255 261 260 296 297 303 302
8 255 256 262 261 297 298 304 303
8 256 257 263 262 298 299 305 304
8 258 259 265 264 300 301 307 306
8 259 260 266 265 301 302 308 307
8 260 261 267 266 302 303 309 308
8 261 262 268 267 303 304 310 309
8 262 263 269 268 304 305 311 310
8 264 265 271 270 306 307 313 312
8 265 266 272 271 307 308 314 313
8 266 267 273 272 308 309 315 314
8 267 268 274 273 309 310 316 315
8 268 269 275 274 310 311 317 316
8 270 271 277 276 312 313 319 318
8 271 272 278 277 313 314 320 319
8 272 273 279 278 314 315 321 320
8 273 274 280 279 315 316 322 321
8 274 275 281 280 316 317 323 322
8 276 277 283 282 318 319 325 324
8 277 278 284 283 319 320 326 325
8 278 279 285 284 320 321 327 326
8 279 280 286 285 321 322 328 327
8 280 281 287 286 322 323 329 328
8 282 283 289 288 324 325 331 330
8 283 284 290 289 325 326 332 331
8 284 285 291 290 326 327 333 332
8 285 286 292 291 327 328 334 333
8 286 287 293 292 328 329 335 334
8 294 295 301 300 336 337 343 342
8 295 296 302 301 337 338 344 343
8 296 297 303 302 338 339 345 344
8 297 298 304 303 339 340 346 345
8 298 299 305 304 340 341 347 346
8 300 301 307 306 342 343 349 348
8 301 302 308 307 343 344 350 349
8 302 303 309 308 344 345 351 350
8 303 304 310 309 345 346 352 351
8 304 305 311 310 346 347 353 352
8 306 307 313 312 348 349 355 354
8 307 308 314 313 349 350 356 355
8 308 309 315 314 350 351 357 356
8 309 310 316 315 351 352 358 357
8 310 311 317 316 352 353 359 358
8 312 313 319 318 354 355 361 360
8 313 314 320 319 355 356 362 361
8 314 315 321 320 356 357 363 362
8 315 316 322 321 357 358 364 363
8 316 317 323 322 358 359 365 364
8 318 319 325 324 360 361 367 366
8 319 320 326 325 361 362 368 367
8 320 321 327 326 362 363 369 368
8 321 322 328 327 363 364 370 369
8 322 323 329 328 364 365 371 370
8 324 325 331 330 366 367 373 372
8 325 326 332 331 367 368 374 373
8 326 327 333 332 368 369 375 374
8 327 328 334 333 369 370 376 375
8 328 329 335 334 370 371 377 376
8 336 337 343 342 378 379 385 384
8 337 338 344 343 379 380 386 385
8 338 339 345 344 380 381 387 386
8 339 340 346 345 381 382 388 387
8 340 341 347 346 382 383 389 388
8 342 343 349 348 384 385 391 390
8 343 344 350 349 385 386 392 391
8 344 345 351 350 386 387 393 392
8 345 346 352 351 387 388 394 393
8 346 347 353 352 388 389 395 394
8 348 349 355 354 390 391 397 396
8 349 350 356 355 391 392 398 397
8 350 351 357 356 392 393 399 398
8 351 352 358 357 393 394 400 399
8 352 353 359 358 394 395 401 400
8 354 355 361 360 396 397 403 402
8 355 356 362 361 397 398 404 403
8 356 357 363 362 398 399 405 404
8 357 358 364 363 399 400 406 405
8 358 359 365 364 400 401 407 406
8 360 361 367 366 402 403 409 408
8 361 362 368 367 403 404 410 409
8 362 363 369 368 404 405 411 410
8 363 364 370 369 405 406 412 411
8 364 365 371 370 406 407 413 412
8 366 367 373 372 408 409 415 414
8 367 368 374 373 409 410 416 415
8 368 369 375 374 410 411 417 416
8 369 370 376 375 411 412 418 417
8 370 371 377 376 412 413 419 418
8 378 379 385 384 420 421 427 426
8 379 380 386 385 421 422 428 427
8 380 381 387 386 422 423 429 428
8 381 382 388 387 423 424 430 429
8 382 383 389 388 424 425 431 430
8 384 385 391 390 426 427 433 432
8 385 386 392 391 427 428 434 433
8 386 387 393 392 428 429 435 434
8 387 388 394 393 429 430 436 435
8 388 389 395 394 430 431 437 436
8 390 391 397 396 432 433 439 438
8 391 392 398 397 433 434 440 439
8 392 393 399 398 434 435 441 440
8 393 394 400 399 435 436 442 441
8 394 395 401 400 436 437 443 442
8 396 397 403 402 438 439 445 444
8 397 398 404 403 439 440 446 445
8 398 399 405 404 440 441 447 446
8 399 400 406 405 441 442 448 447
8 400 401 407 406 442 443 449 448
8 402 403 409 408 444 445 451 450
8 403 404 410 409 445 446 452 451
8 404 405 411 410 446 447 453 452
8 405 406 412 411 447 448 454 453
8 406 407 413 412 448 449 455 454
8 408 409 415 414 450 451 457 456
8 409 410 416 415 451 452 458 457
8 410 411 417 416 452 453 459 458
8 411 412 418 417 453 454 460 459
8 412 413 419 418 454 455 461 460
CELL_TYPES 300
12
12
12
12
12
12
12
12
12
12
12
12
12
12
12
12
12
12
12
12
12
12
12
12
12
12
12
12
12
12
12
12
12
12
12
12
12
12
12
12
12
12
12
12
12
12
12
12
12
12
12
12
12
12
12
12
12
12
12
12
12
12
12
12
12
12
12
12
12
12
12
12
12
12
12
12
12
12
12
12
12
12
12
12
12
12
12
12
12
12
12
12
12
12
12
12
12
12
12
12
12
12
12
12
12
12
12
12
12
12
12
12
12
12
12
12
12
12
12
12
12
12
12
12
12
12
12
12
12
12
12
12
12
12
12
12
12
12
12
12
12
12
12
12
12
12
12
12
12
12
12
12
12
12
12
12
12
12
12
12
12
12
12
12
12
12
12
12
12
12
12
12
12
12
12
12
12
12
12
12
12
12
12
12
12
12
12
12
12
12
12
12
12
12
12
12
12
12
12
12
12
12
12
12
12
12
12
12
12
12
12
12
12
12
12
12
12
12
12
12
12
12
12
12
12
12
12
12
12
12
12
12
12
12
12
12
12
12
12
12
12
12
12
12
12
12
12
12
12
12
12
12
12
12
12
12
12
12
12
12
12
12
12
12
12
12
12
12
12
12
12
12
12
12
12
12
12
12
12
12
12
12
12
12
12
12
12
12
12
12
12
12
12
12
12
12
12
12
12
12
CELL_DATA 300
SCALARS ww_n_group_001 double 1
LOOKUP_TABLE default
3.11175e-06 
3.92374e-06 
3.92071e-06 
3.722e-06 
2.50284e-06 
3.95218e-06 
3.85215e-06 
3.83233e-06 
3.60327e-06 
2.49262e-06 
3.92748e-06 
3.89802e-06 
3.90641e-06 
3.6123e-06 
2.48712e-06 
3.8713e-06 
3.81576e-06 
3.86707e-06 
3.59778e-06 
2.45412e-06 
3.71233e-06 
3.56577e-06 
3.56478e-06 
3.35421e-06 
2.36542e-06 
2.50409e-06 
2.48196e-06 
2.49316e-06 
2.40972e-06 
1.7503e-06 
4.67132e-06 
6.60044e-06 
6.47004e-06 
5.9924e-06 
3.48553e-06 
6.62063e-06 
8.23071e-06 
8.08734e-06 
7.24682e-06 
3.8832e-06 
6.57068e-06 
8.31402e-06 
8.32267e-06 
7.47103e-06 
3.91174e-06 
6.32814e-06 
7.87719e-06 
7.96788e-06 
7.11183e-06 
3.79618e-06 
5.95077e-06 
7.17307e-06 
7.27071e-06 
6.43803e-06 
3.63833e-06 
3.48422e-06 
3.89449e-06 
3.88255e-06 
3.67112e-06 
2.39296e-06 
5.99864e-06 
9.38898e-06 
8.9976e-06 
8.09862e-06 
4.15656e-06 
9.42044e-06 
1.46375e-05 
1.4021e-05 
1.17206e-05 
5.02587e-06 
9.26306e-06 
1.45685e-05 
1.41036e-05 
1.18972e-05 
5.05929e-06 
8.74888e-06 
1.3407e-05 
1.30468e-05 
1.1046e-05 
4.90097e-06 
7.94489e-06 
1.14966e-05 
1.14132e-05 
9.81848e-06 
4.61542e-06 
4.15194e-06 
5.04829e-06 
4.98526e-06 
4.64838e-06 
2.7869e-06 
7.89445e-06 
1.44118e-05 
1.33035e-05 
1.11615e-05 
4.90662e-06 
1.45011e-05 
3.10024e-05 
2.72591e-05 
2.01519e-05 
6.52864e-06 
1.39845e-05 
2.95037e-05 
2.63848e-05 
1.98407e-05 
6.52332e-06 
1.25922e-05 
2.47705e-05 
2.2891e-05 
1.78783e-05 
6.26121e-06 
1.08587e-05 
1.92859e-05 
1.83191e-05 
1.4925e-05 
5.75742e-06 
4.9054e-06 
6.51851e-06 
6.38484e-06 
5.82278e-06 
3.18497e-06 
1.07523e-05 
2.56617e-05 
2.12668e-05 
1.5518e-05 
5.65485e-06 
2.60429e-05 
9.34639e-05 
6.43518e-05 
3.58439e-05 
8.2497e-06 
2.35364e-05 
7.6889e-05 
5.67387e-05 
3.39449e-05 
8.21555e-06 
1.89301e-05 
5.1176e-05 
4.20028e-05 
2.82524e-05 
7.65911e-06 
1.48975e-05 
3.28113e-05 
2.92701e-05 
2.18311e-05 
6.88638e-06 
5.65294e-06 
8.20889e-06 
7.95879e-06 
7.02839e-06 
3.52346e-06 
1.51468e-05 
6.37926e-05 
3.45132e-05 
1.99631e-05 
6.17216e-06 
6.78995e-05 
0.00127516 
0.000173081 
5.62749e-05 
9.54296e-06 
4.4028e-05 
0.000280868 
0.000122696 
5.08604e-05 
9.39344e-06 
2.72889e-05 
0.000100376 
6.96933e-05 
3.87279e-05 
8.69707e-06 
1.8706e-05 
4.93237e-05 
4.08397e-05 
2.78755e-05 
7.66971e-06 
6.15799e-06 
9.58089e-06 
9.08323e-06 
7.83553e-06 
3.71345e-06 
1.51555e-05 
6.37682e-05 
3.44515e-05 
1.99212e-05 
6.16616e-06 
6.78257e-05 
0.0012756 
0.000172944 
5.63494e-05 
9.60448e-06 
4.40604e-05 
0.000280869 
0.000122904 
5.09725e-05 
9.46801e-06 
2.7287e-05 
0.000100544 
6.95623e-05 
3.89879e-05 
8.72002e-06 
1.87075e-05 
4.92871e-05 
4.09435e-05 
2.78366e-05 
7.70936e-06 
6.18691e-06 
9.59306e-06 
9.15358e-06 
7.87057e-06 
3.73385e-06 
9.32589e-06 
2.00785e-05 
1.73054e-05 
1.33468e-05 
5.27933e-06 
2.02862e-05 
6.22084e-05 
4.57319e-05 
2.78963e-05 
7.3421e-06 
1.87116e-05 
5.3113e-05 
4.15713e-05 
2.69297e-05 
7.37709e-06 
1.5787e-05 
3.79006e-05 
3.24793e-05 
2.30843e-05 
6.95786e-06 
1.28895e-05 
2.60064e-05 
2.37987e-05 
1.83108e-05 
6.31916e-06 
5.28999e-06 
7.34365e-06 
7.16314e-06 
6.42658e-06 
3.3535e-06 
5.34085e-06 
8.00665e-06 
7.73468e-06 
7.06588e-06 
3.81587e-06 
8.01678e-06 
1.14607e-05 
1.10897e-05 
9.41492e-06 
4.43004e-06 
7.89035e-06 
1.1501e-05 
1.12633e-05 
9.59055e-06 
4.46353e-06 
7.52259e-06 
1.06013e-05 
1.05815e-05 
9.159e-06 
4.3713e-06 
6.95541e-06 
9.30122e-06 
9.37228e-06 
8.18438e-06 
4.13455e-06 
3.81823e-06 
4.43963e-06 
4.42946e-06 
4.19015e-06 
2.5903e-06 
3.12541e-06 
3.95932e-06 
3.89325e-06 
3.74673e-06 
2.50327e-06 
3.94126e-06 
3.83517e-06 
3.89932e-06 
3.57886e-06 
2.47387e-06 
3.93725e-06 
3.93515e-06 
3.96295e-06 
3.62936e-06 
2.47044e-06 
3.83713e-06 
3.78544e-06 
3.83807e-06 
3.61189e-06 
2.4534e-06 
3.71104e-06 
3.51938e-06 
3.55927e-06 
3.37487e-06 
2.37879e-06 
2.50848e-06 
2.47131e-06 
2.48765e-06 
2.40357e-06 
1.7547e-06 
