# vtk DataFile Version 3.0
MOAB 4.6.0pre
ASCII
DATASET UNSTRUCTURED_GRID
POINTS 4 double
0 0 0
1 0 0
0 1 0
0 0 1
CELLS 1 5
4 0 1 2 3
CELL_TYPES 1
10
CELL_DATA 1
SCALARS phtn_src_group_001 double 1
LOOKUP_TABLE default
0 
SCALARS phtn_src_group_002 double 1
LOOKUP_TABLE default
0 
SCALARS phtn_src_group_003 double 1
LOOKUP_TABLE default
0 
SCALARS phtn_src_group_004 double 1
LOOKUP_TABLE default
0 
SCALARS phtn_src_group_005 double 1
LOOKUP_TABLE default
0 
SCALARS phtn_src_group_006 double 1
LOOKUP_TABLE default
0 
SCALARS phtn_src_group_007 double 1
LOOKUP_TABLE default
0 
SCALARS phtn_src_group_008 double 1
LOOKUP_TABLE default
0 
SCALARS phtn_src_group_009 double 1
LOOKUP_TABLE default
140.783 
SCALARS phtn_src_group_010 double 1
LOOKUP_TABLE default
4495.66 
SCALARS phtn_src_group_011 double 1
LOOKUP_TABLE default
0 
SCALARS phtn_src_group_012 double 1
LOOKUP_TABLE default
0 
SCALARS phtn_src_group_013 double 1
LOOKUP_TABLE default
0 
SCALARS phtn_src_group_014 double 1
LOOKUP_TABLE default
0 
SCALARS phtn_src_group_015 double 1
LOOKUP_TABLE default
0 
SCALARS phtn_src_group_016 double 1
LOOKUP_TABLE default
0 
SCALARS phtn_src_group_017 double 1
LOOKUP_TABLE default
0 
SCALARS phtn_src_group_018 double 1
LOOKUP_TABLE default
0 
SCALARS phtn_src_group_019 double 1
LOOKUP_TABLE default
25344.5 
SCALARS phtn_src_group_020 double 1
LOOKUP_TABLE default
0 
SCALARS phtn_src_group_021 double 1
LOOKUP_TABLE default
0 
SCALARS phtn_src_group_022 double 1
LOOKUP_TABLE default
2679.56 
SCALARS phtn_src_group_023 double 1
LOOKUP_TABLE default
5928.31 
SCALARS phtn_src_group_024 double 1
LOOKUP_TABLE default
682339 
SCALARS phtn_src_group_025 double 1
LOOKUP_TABLE default
4414.54 
SCALARS phtn_src_group_026 double 1
LOOKUP_TABLE default
2978180 
SCALARS phtn_src_group_027 double 1
LOOKUP_TABLE default
0 
SCALARS phtn_src_group_028 double 1
LOOKUP_TABLE default
0 
SCALARS phtn_src_group_029 double 1
LOOKUP_TABLE default
6.10057 
SCALARS phtn_src_group_030 double 1
LOOKUP_TABLE default
0 
SCALARS phtn_src_group_031 double 1
LOOKUP_TABLE default
124863 
SCALARS phtn_src_group_032 double 1
LOOKUP_TABLE default
0 
SCALARS phtn_src_group_033 double 1
LOOKUP_TABLE default
269997000 
SCALARS phtn_src_group_034 double 1
LOOKUP_TABLE default
164346 
SCALARS phtn_src_group_035 double 1
LOOKUP_TABLE default
19565000 
SCALARS phtn_src_group_036 double 1
LOOKUP_TABLE default
0 
SCALARS phtn_src_group_037 double 1
LOOKUP_TABLE default
274035 
SCALARS phtn_src_group_038 double 1
LOOKUP_TABLE default
0 
SCALARS phtn_src_group_039 double 1
LOOKUP_TABLE default
0 
SCALARS phtn_src_group_040 double 1
LOOKUP_TABLE default
0 
SCALARS phtn_src_group_041 double 1
LOOKUP_TABLE default
0 
SCALARS phtn_src_group_042 double 1
LOOKUP_TABLE default
0 
