# vtk DataFile Version 3.0
MOAB 4.6.0pre
ASCII
DATASET UNSTRUCTURED_GRID
POINTS 1576 double
62.89664633 885.0149761 -30.61345742
89.70289672 839.428795 -33.82565265
64.23695885 882.735667 -30.77406718
65.57727137 880.456358 -30.93467694
66.91758389 878.1770489 -31.0952867
68.25789641 875.8977399 -31.25589646
69.59820893 873.6184308 -31.41650623
70.93852145 871.3391218 -31.57711599
72.27883397 869.0598127 -31.73772575
73.61914649 866.7805036 -31.89833551
74.95945901 864.5011946 -32.05894527
76.29977153 862.2218855 -32.21955503
77.64008405 859.9425765 -32.38016479
78.98039657 857.6632674 -32.54077456
80.32070909 855.3839584 -32.70138432
81.66102161 853.1046493 -32.86199408
83.00133413 850.8253403 -33.02260384
84.34164665 848.5460312 -33.1832136
85.68195917 846.2667222 -33.34382336
87.02227168 843.9874131 -33.50443312
88.3625842 841.7081041 -33.66504289
62.89664633 885.0149761 61.3
62.89664633 885.0149761 58.59666302
62.89664633 885.0149761 55.89332603
62.89664633 885.0149761 53.18998905
62.89664633 885.0149761 50.48665207
62.89664633 885.0149761 47.78331509
62.89664633 885.0149761 45.0799781
62.89664633 885.0149761 42.37664112
62.89664633 885.0149761 39.67330414
62.89664633 885.0149761 36.96996715
62.89664633 885.0149761 34.26663017
62.89664633 885.0149761 31.56329319
62.89664633 885.0149761 28.85995621
62.89664633 885.0149761 26.15661922
62.89664633 885.0149761 23.45328224
62.89664633 885.0149761 20.74994526
62.89664633 885.0149761 18.04660827
62.89664633 885.0149761 15.34327129
62.89664633 885.0149761 12.63993431
62.89664633 885.0149761 9.936597325
62.89664633 885.0149761 7.233260342
62.89664633 885.0149761 4.529923359
62.89664633 885.0149761 1.826586376
62.89664633 885.0149761 -0.8767506064
62.89664633 885.0149761 -3.580087589
62.89664633 885.0149761 -6.283424572
62.89664633 885.0149761 -8.986761555
62.89664633 885.0149761 -11.69009854
62.89664633 885.0149761 -14.39343552
62.89664633 885.0149761 -17.0967725
62.89664633 885.0149761 -19.80010949
62.89664633 885.0149761 -22.50344647
62.89664633 885.0149761 -25.20678345
62.89664633 885.0149761 -27.91012044
86.32647479 845.1706716 61.3
84.94824959 847.5144542 61.3
83.57002439 849.8582368 61.3
82.19179918 852.2020194 61.3
80.81357398 854.5458021 61.3
79.43534878 856.8895847 61.3
78.05712357 859.2333673 61.3
76.67889837 861.5771499 61.3
75.30067316 863.9209325 61.3
73.92244796 866.2647151 61.3
72.54422276 868.6084978 61.3
71.16599755 870.9522804 61.3
69.78777235 873.296063 61.3
68.40954715 875.6398456 61.3
67.03132194 877.9836282 61.3
65.65309674 880.3274108 61.3
64.27487154 882.6711935 61.3
89.60642753 839.5928486 -31.10777686
89.50995833 839.7569022 -28.38990107
89.41348913 839.9209559 -25.67202528
89.31701993 840.0850095 -22.95414949
89.22055073 840.2490631 -20.2362737
89.12408154 840.4131167 -17.51839791
89.02761234 840.5771703 -14.80052212
88.93114314 840.7412239 -12.08264633
88.83467394 840.9052776 -9.364770537
88.73820474 841.0693312 -6.646894748
88.64173554 841.2333848 -3.929018958
88.54526635 841.3974384 -1.211143168
88.44879715 841.561492 1.506732622
88.35232795 841.7255456 4.224608412
88.25585875 841.8895993 6.942484202
88.15938955 842.0536529 9.660359992
88.06292036 842.2177065 12.37823578
87.96645116 842.3817601 15.09611157
87.86998196 842.5458137 17.81398736
87.77351276 842.7098673 20.53186315
87.67704356 842.873921 23.24973894
87.58057437 843.0379746 25.96761473
87.48410517 843.2020282 28.68549052
87.38763597 843.3660818 31.40336631
87.29116677 843.5301354 34.1212421
87.19469757 843.694189 36.83911789
87.09822838 843.8582427 39.55699368
87.00175918 844.0222963 42.27486947
86.90528998 844.1863499 44.99274526
86.80882078 844.3504035 47.71062105
86.71235158 844.5144571 50.42849684
86.61588239 844.6785107 53.14637263
86.51941319 844.8425644 55.86424842
86.42294399 845.006618 58.58212421
64.71468128 881.9232617 -28.3176931
66.20149982 879.3948074 -28.46832458
67.62538985 876.9733681 -28.72751322
68.99417105 874.6456457 -28.95672912
70.34436817 872.3495271 -29.15732875
71.68890104 870.063041 -29.33948019
73.03082615 867.7809896 -29.51088145
74.37151449 865.5010414 -29.67627348
75.71176325 863.2218408 -29.83861772
77.05194919 860.942747 -29.99961465
78.39220041 858.6635422 -30.16009287
79.73253977 856.3841875 -30.32038123
81.07296146 854.1046928 -30.48057281
82.41302387 851.8258091 -30.63926864
83.75657245 849.5409969 -30.78945777
85.11532284 847.2303327 -30.94256156
86.48902014 844.8942502 -31.12099188
87.88712298 842.5166641 -31.28903712
64.15889676 882.8684179 57.67530368
64.16632474 882.855786 54.73787636
64.13762746 882.904588 51.91400835
64.11776936 882.9383583 49.16459695
64.09928104 882.9697992 46.43968222
64.08982998 882.9858715 43.72814935
64.08580581 882.9927149 41.02248623
64.08424339 882.9953719 38.31894771
64.08369291 882.9963081 35.61599063
64.08351755 882.9966063 32.91308346
64.08345814 882.9967073 30.21009804
64.08342197 882.9967688 27.50703722
64.0833824 882.9968361 24.80392991
64.08333486 882.996917 22.10080005
64.0832801 882.9970101 19.39766248
64.08321919 882.9971137 16.69452569
64.0831525 882.9972271 13.99139476
64.08307976 882.9973508 11.28827322
64.08300031 882.9974859 8.585164038
64.08291316 882.9976341 5.882070118
64.08281702 882.9977976 3.178994561
64.08271026 882.9979791 0.4759408638
64.08259078 882.9981823 -2.227086881
64.08245581 882.9984118 -4.93008374
64.08230159 882.9986741 -7.633043607
64.08212276 882.9989782 -10.3359587
64.08191131 882.9993378 -13.03881884
64.08163339 882.9998104 -15.7416759
64.08198913 882.9992055 -18.44286271
64.08979785 882.9859261 -21.14272443
64.09640726 882.9746863 -23.8502408
63.99948348 883.139513 -26.17537789
84.53968061 848.2092586 58.77556767
83.01466474 850.8026705 58.75107854
81.55204047 853.2899805 58.83854018
80.14341684 855.6854581 58.89442207
78.75393436 858.0483846 58.92266237
77.37148515 860.3993505 58.93665838
75.99188216 862.7454761 58.94346401
74.61340529 865.0896867 58.94652967
73.23529878 867.4332675 58.94776425
71.85726406 869.7767262 58.94822271
70.47918004 872.1202687 58.94845829
69.10112881 874.4637555 58.95106706
67.72383723 876.8059504 58.9539894
66.36043404 879.124527 58.95151544
65.19574714 881.1051706 59.12828051
88.5237099 841.4340969 -29.38745267
88.28633371 841.8377741 -27.19154536
88.13359476 842.097519 -24.50958689
88.06534316 842.2135863 -21.76476199
87.97953098 842.3595168 -19.05148156
87.88579357 842.5189248 -16.33767493
87.78976536 842.6822285 -13.62075117
87.69322263 842.8464072 -10.90247589
87.59661457 843.0106969 -8.18384431
87.50002184 843.1749606 -5.465203588
87.40344649 843.3391948 -2.746643269
87.30688238 843.5034098 -0.02817185079
87.21032611 843.6676115 2.690222171
87.11377638 843.831802 5.40855226
87.01723265 843.9959824 8.126829678
86.92069451 844.1601533 10.84506321
86.82416155 844.3243153 13.56325968
86.72763337 844.4884692 16.28142449
86.63110956 844.6526157 18.99956199
86.53458975 844.8167554 21.71767575
86.43807361 844.9808888 24.43576872
86.34156089 845.1450165 27.15384336
86.24505135 845.3091387 29.87190176
86.14854486 845.4732557 32.58994564
86.05204132 845.6373677 35.30797646
85.95554075 845.8014747 38.02599542
85.85904326 845.9655764 40.7440035
85.76254912 846.1296725 43.4620015
85.66400493 846.2972548 46.17830634
85.5587154 846.4763081 48.89571032
85.44606435 846.6678802 51.62086094
85.33777825 846.8520295 54.35451917
85.35195304 846.8279241 56.70732579
65.41309809 880.7355478 -25.55110588
67.01188024 878.0166904 -26.09874499
68.40420485 875.6489306 -26.42849842
69.75714739 873.3481432 -26.68238684
71.10264946 871.0600089 -26.91171845
72.44526091 868.7767903 -27.10977028
73.78593969 866.4968584 -27.28798621
75.12569512 864.2184967 -27.45570025
76.46530594 861.940381 -27.61842717
77.80512896 859.6619044 -27.77909037
79.14523598 857.3829448 -27.93902766
80.48558918 855.1035665 -28.09872044
81.82640121 852.823408 -28.25052622
83.17332887 850.5328494 -28.39443766
84.53459656 848.2179044 -28.54350349
85.92865711 845.8471925 -28.68126503
65.54135189 880.5174419 56.42950135
65.41469259 880.7328362 53.36093301
65.38560528 880.7823015 50.54811272
65.32135457 880.891565 47.78219504
65.29131935 880.9426423 45.06961396
65.27836582 880.9646709 42.36633052
65.27300676 880.9737844 39.66460233
65.27098648 880.97722 36.96312216
65.27034557 880.9783099 34.26138543
65.27019166 880.9785717 31.55923956
65.27015697 880.9786307 28.85674431
65.27011807 880.9786968 26.15402182
65.27004882 880.9788146 23.45117613
65.26995238 880.9789786 20.74827431
65.2698359 880.9791767 18.04535404
65.26970393 880.9794011 15.34243546
65.26955811 880.9796491 12.63953002
65.26939813 880.9799211 9.936645365
65.2692225 880.9802198 7.233787822
65.26902888 880.9805491 4.530963581
65.26881419 880.9809142 1.828179298
65.26857446 880.9813219 -0.8745574717
65.26830446 880.981781 -3.577237859
65.26799724 880.9823035 -6.27985117
65.26764309 880.9829057 -8.982384207
65.26722792 880.9836118 -11.68482036
65.26672734 880.984463 -14.38714948
65.26518862 880.9870797 -17.07304903
65.26989319 880.9790792 -19.73658359
65.312636 880.9063917 -22.44755757
83.93139145 849.2437031 55.91313142
82.27512491 852.0603173 56.28724258
80.83747927 854.5051492 56.46068046
79.44574503 856.871905 56.53004777
78.06232343 859.2245245 56.56380568
76.68196495 861.5719349 56.58179802
75.30339022 863.916312 56.59097935
73.92562807 866.2593071 56.59511251
72.54804763 868.6019933 56.59668697
71.16928146 870.9466958 56.59495919
69.7866003 873.2980562 56.59862486
68.40124139 875.6539702 56.6167691
67.03361934 877.9797213 56.63648005
87.32127601 843.4789323 -28.97837207
86.82482692 844.3231838 -26.18111395
86.91176795 844.1753336 -23.24958013
86.83010914 844.314201 -20.58706223
86.73462834 844.4765737 -17.88595796
86.64455969 844.6297427 -15.16517939
86.5508801 844.7890524 -12.44388516
86.45503779 844.9520399 -9.723550847
86.35852747 845.1161634 -7.003720434
86.26188093 845.2805186 -4.284192758
86.16522476 845.4448902 -1.564902432
86.06857897 845.6092441 1.154191285
85.9719446 845.7735787 3.873124308
[...]
CELL_DATA 4431
SCALARS ERROR_TAG double 1
LOOKUP_TABLE default
0.08475048062 
0.08876423661 
0.09714216033 
0.08808279238 
0.09016982347 
0.1016018844 
0.1382443017 
0.1366882517 
0.0846531359 
0.1325574095 
0.08319268573 
0.08060065483 
0.08514256205 
0.1019968326 
0.09869922303 
0.1104833563 
0.1149837351 
0.09769350837 
0.09964734061 
0.1007491833 
0.1055250764 
0.09252688704 
0.1198425269 
0.1175448777 
0.1176028191 
0.09562270061 
0.09321235781 
0.09322818478 
0.1230347174 
0.08841097351 
0.1428232001 
0.1306737945 
0.124705008 
0.1221694898 
0.09645811079 
0.09767368671 
0.09124940241 
0.07771780228 
0.0883154668 
0.0857638031 
0.09131237597 
0.0821455857 
0.0842381629 
0.08904495822 
0.08456995982 
0.1351931816 
0.1265835597 
0.1229180953 
0.1250632047 
0.1137646421 
0.1104321031 
0.1011941055 
0.115808821 
0.1020157139 
0.1174497134 
0.1140457446 
0.1228002593 
0.09673340807 
0.0956611989 
0.09617022004 
0.1000051171 
0.1223855826 
0.1136515029 
0.07885015874 
0.11925881 
0.114083763 
0.09725771518 
0.1147266018 
0.1073341815 
0.09958122248 
0.07935744902 
0.08518639241 
0.09951792662 
0.08588590313 
0.07738416552 
0.07557536244 
0.07842998455 
0.07418608662 
0.08774016252 
0.08321290917 
0.1013081898 
0.07854133024 
0.07529212687 
0.08029091516 
0.08392524041 
0.08146939849 
0.08392167508 
0.08054067038 
0.09108921184 
0.0952192913 
0.07987270355 
0.1228216438 
0.1118948038 
0.1158101345 
0.1238478954 
0.07124154214 
0.08474576817 
0.08189707699 
0.08315671783 
0.07726883048 
0.07827368564 
0.07916958934 
0.113173603 
0.0920237462 
0.1109598607 
0.0851687572 
0.07950788154 
0.1654260963 
0.1233897928 
0.123714037 
0.1481754015 
0.1357898571 
0.07929755405 
0.08142878755 
0.101735208 
0.096566645 
0.1187725826 
0.1207285954 
0.08567476098 
0.09675896591 
0.07957228047 
0.08268090962 
0.08886539347 
0.09061328168 
0.07954336526 
0.07672978212 
0.07750365656 
0.08314635401 
0.08438834744 
0.09096525217 
0.08097059542 
0.08474801297 
0.08429404723 
0.08285774041 
0.1380477278 
0.08576660703 
0.09343590318 
0.08541041446 
0.08366249926 
0.1053685395 
0.09625049409 
0.08017387599 
0.08470187446 
0.07407425846 
0.1189995508 
0.08280198837 
0.07695108948 
0.07545629166 
0.07666274332 
0.07622649202 
0.08278952615 
0.08075319603 
0.08300005103 
0.08250964419 
0.08125509 
0.08448203461 
0.07578985787 
0.07717021292 
0.08452561455 
0.07612743688 
0.09799828506 
0.09931925635 
0.09991871101 
0.1000503909 
0.09774408122 
0.1555159402 
0.08217171729 
0.08556254859 
0.08159178741 
0.07820383311 
0.08420406809 
0.08554592809 
0.08320739009 
0.08863962351 
0.1057863687 
0.08924035826 
0.08664487663 
0.1006677862 
0.08804750074 
0.08784517329 
0.08363457438 
0.07617317908 
0.07618309002 
0.07079851926 
0.08435175222 
0.08529535458 
0.07780940199 
0.09204704481 
0.08077256914 
0.08733242516 
0.0852161013 
0.09082490316 
0.08815693136 
0.08320322161 
0.08541659519 
0.09691928531 
0.1168307625 
0.09079466891 
0.07936601026 
0.07975613532 
0.07861021368 
0.07538565372 
0.08314442217 
0.0852306564 
0.07121577572 
0.0721846507 
0.08460240348 
0.07767597729 
0.1342485981 
0.1197892146 
0.08341954272 
0.0745346512 
0.08791286636 
0.08709801319 
0.08398177824 
0.07816770018 
0.08068302887 
0.08176298798 
0.07691215142 
0.09495788965 
0.09649947904 
0.09360923965 
0.09899478386 
0.09880032186 
0.1167474175 
0.08025908063 
0.08457381212 
0.08270103477 
0.08187327207 
0.07469314212 
0.07526867511 
0.07951654734 
0.08455018178 
0.08079593487 
0.07676083604 
0.08056264577 
0.08584446966 
0.1594997808 
0.1076303633 
0.0791372988 
0.08880091715 
0.0798481058 
0.08786703737 
0.08243670105 
0.07870462192 
0.08881660097 
0.08054378278 
0.08365303094 
0.0780755281 
0.08245590144 
0.07564151665 
0.0815420357 
0.07984253772 
0.09028276818 
0.1201906298 
0.08117143521 
0.08134420829 
0.08230893116 
0.08253735645 
0.0841807285 
0.09057088093 
0.07890714287 
0.08862824113 
0.08032014295 
0.08950105257 
0.08144678073 
0.08227226583 
0.0763424127 
0.08551062212 
0.0872368728 
0.09369215409 
0.0927505575 
0.09309424863 
0.1150328269 
0.1155636401 
0.118577448 
0.1154133439 
0.1269616546 
0.09773653343 
0.08698818454 
0.09800642016 
0.1127179886 
0.1148771561 
0.1119946596 
0.09865542227 
0.1022598112 
0.09578475561 
0.1093028188 
0.09041191674 
0.10329926 
0.09386824616 
0.08652019856 
0.08442700896 
0.09274870426 
0.08325788383 
0.08198596916 
0.07901552899 
0.0801309845 
0.07598744464 
0.08126888519 
0.08380206239 
0.09370732101 
0.08220311459 
0.08090914836 
0.08378268641 
0.09294694838 
0.0812203025 
0.09147562962 
0.090177047 
0.07983402136 
0.08290064008 
0.08718312768 
0.08136281606 
0.08162497889 
0.08237547744 
0.08379982487 
0.07991036812 
0.08052859753 
0.07601556566 
0.08399454437 
0.1003929032 
0.09329149826 
0.09630477738 
0.08591986494 
0.0853496717 
0.09087554029 
0.08138316847 
0.08626012465 
0.08546894623 
0.1152281544 
0.1085570302 
0.1138382399 
0.1106089703 
0.08613328334 
0.08205467783 
0.07920078332 
0.08283042977 
0.08186037933 
0.08117582082 
0.08411001876 
0.08127586228 
0.0724278319 
0.08015429035 
0.1001882465 
0.1003809072 
0.09480734231 
0.09107224433 
0.09662296236 
0.1006499642 
0.08592975143 
0.08146255849 
0.08027377724 
0.08779046859 
0.08841068498 
0.09130853803 
0.08269027209 
0.08726520282 
0.09155216532 
0.09502630971 
0.08873517264 
0.1155584832 
0.1116464463 
0.1082004843 
0.1024257665 
0.1005210848 
0.1183383038 
0.09137763626 
0.08498024631 
0.09016558198 
0.09731632734 
0.09280000396 
0.1074699088 
0.1030556153 
0.1023244272 
0.1036492168 
0.1035713224 
0.1111476567 
0.103430552 
0.1005211127 
0.1005148588 
0.1087358211 
0.08501984799 
0.09731450865 
0.08172812244 
0.08663440713 
0.08544960499 
0.08855620066 
0.09080872204 
0.09186783548 
0.08126171502 
0.08320441864 
0.07684370739 
0.1367876912 
0.0881015264 
0.08808393665 
0.09472962503 
0.08543596756 
0.08372110546 
0.1017364288 
0.08858588391 
0.1063959056 
0.08028229138 
0.07743146025 
0.07723148769 
0.08455529738 
0.09555532628 
0.09038015191 
0.09767591513 
0.09033049738 
0.1031046383 
0.1232820718 
0.1307160392 
0.1173815055 
0.0843896643 
0.08768625621 
0.0861072362 
0.0907420274 
0.08895860016 
0.07543652857 
0.1029483316 
0.103701448 
0.1057680664 
0.1108072638 
0.09884153287 
0.1110421201 
0.1246759467 
0.114893451 
0.1128972999 
0.1174069282 
0.112358667 
0.1103995001 
0.1131114536 
0.119275107 
0.1120007055 
0.08577691357 
0.08651146133 
0.1015284499 
0.1271992751 
0.08975309413 
0.07783450896 
0.09867974727 
0.08898737622 
0.07793995278 
0.08697898213 
0.1197212385 
0.1319480461 
0.0809001145 
0.08504113296 
0.1207695031 
0.1069086381 
0.08532279089 
0.07974150337 
0.09751281205 
0.09261115252 
0.0935366385 
0.09450817788 
0.08948321749 
0.08816844514 
0.09279467028 
0.09321336136 
0.08566024762 
0.09676993557 
0.1087076188 
0.09336990326 
0.09640590675 
0.1074732516 
0.08056603452 
0.08447985257 
0.1120908807 
0.1148080684 
0.08323021629 
0.0807716275 
0.08202844417 
0.08313802872 
0.09053581813 
0.08218631062 
0.08656772857 
0.07685336627 
0.07728866835 
0.0954008317 
0.1002025349 
0.08693281851 
0.08276972162 
0.08730798668 
0.1249974196 
0.0913511516 
0.08282507566 
0.0860758623 
0.07870512714 
0.09727393785 
0.1064193583 
0.1022657748 
0.1236520583 
0.1005588626 
0.107450696 
0.105926428 
0.1118874188 
0.1300529227 
0.08663011015 
0.08415300881 
0.08808156733 
0.0768183759 
0.08534593032 
0.08701839463 
0.09007827846 
0.08936050516 
0.09250583429 
0.1001184994 
0.1144960573 
0.08762432822 
0.0932810429 
0.09860752145 
0.093227347 
0.0797346172 
0.09983850229 
0.09077816791 
0.09960181019 
0.08661095863 
0.1141952579 
0.08750005651 
0.08153532093 
0.09216036088 
0.09193758459 
0.08971389953 
0.08609234568 
0.07465879601 
0.09024951923 
0.09387711608 
0.08472554681 
0.08432195762 
0.08625418985 
0.0874725256 
0.0888411614 
0.07799677169 
0.07818900477 
0.08433168753 
0.08833597696 
0.08254670091 
0.08637407601 
0.08934841899 
0.07897037514 
0.1541567908 
0.1433694116 
0.1445640034 
0.08932330465 
0.08038188298 
0.09358464059 
0.09876343877 
0.08708166829 
0.100856826 
0.1146275372 
0.08419850999 
0.07862389478 
0.07973692864 
0.09410774668 
0.08857302016 
0.09820108459 
0.09616230507 
0.09528838495 
0.09439609343 
0.1000703003 
0.08130583204 
0.09351189655 
0.08938423491 
0.095169069 
0.08985721799 
0.08830083113 
0.1042074672 
0.09968496545 
0.1012851835 
0.09226556142 
0.09214172069 
0.09555675455 
0.08989171159 
0.09215005396 
0.08037903508 
0.08712812981 
0.09035861196 
0.1018071363 
0.08038985224 
0.09102920692 
0.08698397655 
0.08269755563 
0.08027083217 
0.07540508226 
0.0933583975 
0.09300538982 
0.0898133384 
0.09634183953 
0.08603157364 
0.08178614497 
0.08716906563 
0.08034536017 
0.08877730802 
0.09098244567 
0.08463700137 
0.0874982636 
0.08505352796 
0.09658852285 
0.09247615171 
0.1048219639 
0.0951702597 
0.1021495176 
0.1042762076 
0.09739864798 
0.09000665575 
0.09130620015 
0.09602724307 
0.1101866344 
0.08995651872 
0.08551048844 
0.08561803065 
0.08136505862 
0.1527192526 
0.1036246773 
0.09742141198 
0.09039310902 
0.07785746227 
0.090079293 
0.0781897228 
0.08338685793 
0.09835343284 
0.08054114419 
0.08156817943 
0.07889906906 
0.08568441942 
0.08416995458 
0.09062507232 
0.07970345099 
0.09889565482 
0.08899509991 
0.07819715935 
0.092523263 
0.08714475467 
0.09864318672 
0.09510136134 
0.09528603951 
0.09937377552 
0.1113966701 
0.09376579305 
0.09735032879 
0.08343315538 
0.07753414344 
0.07535076553 
0.08146909932 
0.08525003219 
0.08547139852 
0.0883807591 
0.08299695949 
0.1027074346 
0.09421093109 
0.1126500398 
0.09483652364 
0.07679929157 
0.08125018034 
0.08576947128 
0.08416222923 
0.08282120592 
0.08585773568 
0.07667851441 
0.08015137438 
0.08598551974 
0.09465073324 
0.08676111824 
0.0881816501 
0.08893831029 
0.08855508383 
0.07695308982 
0.09600828945 
0.09692539044 
0.08186967139 
0.08764403902 
0.07948284642 
0.08361797065 
0.0886974368 
0.1007168966 
0.1028667785 
0.1001598733 
0.104866154 
0.1108576005 
0.09969676448 
0.0885443953 
0.07845200245 
0.07627106984 
0.07450981038 
0.1058537912 
0.08026367251 
0.1037022217 
0.07945935125 
0.09634721741 
0.08088359008 
0.07540819732 
0.07630697653 
0.07946739162 
0.08862224285 
0.09198141308 
0.08195344292 
0.09312076388 
0.08278523023 
0.0810062237 
0.08987770487 
0.100953339 
0.09523436914 
0.08825836232 
0.08349247269 
0.1020206432 
0.107442195 
0.09693927844 
0.1011079848 
0.0904208101 
0.1003012671 
0.08802567318 
0.08972261857 
0.0942818078 
0.09118910642 
0.0837901103 
0.08688546848 
0.07957821403 
0.08655710898 
0.08356108515 
0.08618715697 
0.09858146624 
0.093109005 
0.09496632204 
0.09491012031 
0.09548947402 
0.09471555084 
0.115901987 
0.08081319555 
0.08037121334 
0.08280721724 
0.07770690606 
0.09243940671 
0.08927309024 
0.0784545713 
0.0777708992 
0.08092566244 
0.09353243951 
0.08886090728 
0.08460022732 
0.08434897141 
0.07795183687 
0.08113169536 
0.09110358019 
0.08496773807 
0.08388280662 
0.08821887372 
0.0925324307 
0.08951665492 
0.08592165799 
0.08884341047 
0.09151679767 
0.0863468162 
0.08879946813 
0.08258198964 
0.08611329205 
0.09604525608 
0.08982327786 
0.08963250564 
0.0828075539 
0.07808048843 
0.09929078526 
0.09946457614 
0.08787030905 
0.09935808498 
0.09957073263 
0.08760356176 
0.08736353885 
0.0910887033 
0.1203438488 
0.1099123918 
0.1115750806 
0.09797182963 
0.1032593966 
0.09517447462 
0.1139484333 
0.1092018501 
0.1200891666 
0.09073110381 
0.1067788337 
0.0957884676 
0.102765767 
0.0997988447 
0.09621155745 
0.08471559538 
0.09124155017 
0.1026834126 
0.1014294553 
0.09851347677 
0.1006042965 
0.1104794924 
0.1572638189 
0.08047170361 
0.1576012797 
0.08448348003 
0.09288308009 
0.09887268644 
0.09627767223 
0.0882867874 
0.09825063182 
0.08261320298 
0.08076649454 
0.08054084935 
0.09051411192 
0.08861625054 
0.08425003518 
0.1004665879 
0.08705478796 
0.09772236008 
0.09579302724 
0.10898574 
0.09078775763 
0.09042724326 
0.1105773581 
0.08954981049 
0.0789322812 
0.09762990329 
0.09465487269 
0.09495020287 
0.09262989897 
0.1118643862 
0.1046965032 
0.1021133629 
0.1051171372 
0.1166621761 
0.1305450972 
0.1300641501 
0.1351939063 
0.1331132029 
0.1167269199 
0.1046995614 
0.1221231416 
0.1193621186 
0.09902272153 
0.09852625464 
0.09512794009 
0.09326036194 
0.08429162244 
0.09138807394 
0.09597689105 
0.09276987298 
0.08441597186 
0.08608867331 
0.08417654891 
0.08989624307 
0.1030831522 
0.08825316234 
0.09935254172 
0.09820332401 
0.107673401 
0.086216117 
0.09949495947 
0.09883707444 
0.09286423683 
0.0875408865 
0.08562589017 
0.09577214541 
0.1018336618 
0.09588093093 
0.07907453027 
0.08961311515 
0.1005147554 
0.105427529 
0.1030011143 
0.09128921934 
0.07943485318 
0.08413069719 
0.08097383325 
0.0905700269 
0.08060783698 
0.09949139032 
0.1100176997 
0.1016382026 
0.08623929389 
0.08948590203 
0.09494155376 
0.1078089999 
0.1120434481 
0.1088335618 
0.09701525367 
0.1089256228 
0.1337857345 
0.08339081307 
0.09933128497 
0.09665294231 
0.08064235025 
0.09320454865 
0.1023869977 
0.1065722295 
0.0969129495 
0.1004583112 
0.1048948876 
0.09819559933 
0.103055135 
0.1042256451 
0.102715623 
0.1088083518 
0.1012076941 
0.1103384405 
0.08823616321 
0.1072523941 
0.08837423193 
0.09528993495 
0.09030315556 
0.09277048495 
0.09878778801 
0.1059423947 
0.1030459989 
0.1150740538 
0.09963876904 
0.1020250188 
0.09087604549 
0.09378273523 
0.09697283449 
0.1355054341 
0.1316171202 
0.1049859006 
0.1021864038 
0.08976970499 
0.09390895587 
0.1031477871 
0.1034492162 
0.09481742004 
0.09821177586 
0.08883202651 
0.09655343008 
0.1077615638 
0.09559083343 
0.1157294912 
0.09946902854 
0.09969992574 
0.09179752017 
0.09799938098 
0.08999214668 
0.1395382255 
0.1125203657 
0.1371810452 
0.1071118279 
0.08391705753 
0.09039376785 
0.1330969939 
0.1176565411 
0.145278647 
0.09556310377 
0.109194069 
0.1019848451 
0.1054093908 
0.111737606 
0.0822709647 
0.07747538195 
0.08899917025 
0.08118983993 
0.09696370751 
0.09714120054 
0.09658413206 
0.08798734381 
0.09482801231 
0.08586837824 
0.1104507891 
0.1274463433 
0.11224226 
0.08692519306 
0.1135822329 
0.1094918759 
0.07762040732 
0.0778221824 
0.07702687056 
0.1029109172 
0.1083625319 
0.118946703 
0.1059707114 
0.1023641867 
0.119579665 
0.1024623011 
0.09678683056 
0.09972842478 
0.1209098578 
0.1111518841 
0.1273906669 
0.117865995 
0.1219100508 
0.1233799842 
0.07895941269 
0.0753238052 
0.07888174055 
0.08180375154 
0.09855877151 
0.1093232223 
0.09831038404 
0.1124754697 
0.1191009285 
0.09464856121 
0.0983031289 
0.087668978 
0.1012362075 
0.105544229 
0.1238942587 
0.1286553407 
0.1198229249 
0.1422653432 
0.1121213383 
0.1104603165 
0.1221961909 
0.1363114409 
0.1127351311 
0.1159932019 
0.1242021257 
0.1281708556 
0.1200948737 
0.1344973447 
0.1325843013 
0.1145695846 
0.122925562 
0.1063326054 
0.1176787327 
0.1205876998 
0.1209204581 
0.1026372379 
0.1113809573 
0.1258015027 
0.1485679262 
0.1345484279 
0.08830302565 
0.09808495765 
0.1001763037 
0.08488218423 
0.1575011883 
0.1388402535 
0.1435221743 
0.1292250285 
0.1218873181 
0.1115032614 
0.1018064049 
0.1103719621 
0.1343596526 
0.1349049672 
0.1250711561 
0.1339461359 
0.1315255812 
0.1368118946 
0.1303030796 
0.1357084083 
0.1252992806 
0.1247358528 
0.125581336 
0.1109395752 
0.1181166273 
0.1429807375 
0.1168421104 
0.1201959801 
0.1230706019 
0.1364009162 
0.1325723653 
0.1346344692 
0.1254290441 
0.1265039167 
0.1271105733 
0.1322121207 
0.1441627089 
0.1255296264 
0.1285419866 
0.1268711991 
0.1224531735 
0.1238830165 
0.1480466061 
0.1251930534 
0.1170673272 
0.130101852 
0.1392533241 
0.1362170235 
0.1303072305 
0.1347374289 
0.1266038707 
0.1604012487 
0.1305122186 
0.1159633825 
0.1315237799 
0.147064154 
0.1287883307 
0.1214295921 
0.1161868 
0.1339601207 
0.1035514874 
0.1370647129 
0.1441862944 
0.1229274961 
0.1290603891 
0.1500907745 
0.1233977551 
0.1251619088 
0.1230761822 
0.1271856305 
0.1358886622 
0.1218339808 
0.1289094725 
0.1361696668 
0.1277099861 
0.1222120657 
0.1256894051 
0.1309125047 
0.1394634447 
0.1261290175 
0.1356740161 
0.1475277999 
0.1463821741 
0.1356379034 
0.1269649885 
0.1387847353 
0.1378698649 
0.1246454282 
0.1358953234 
0.1212200627 
0.1210224197 
0.1185731782 
0.07580428619 
0.08023834836 
0.07330489803 
0.1251891521 
0.1404734347 
0.1273939792 
0.1581111547 
0.1643699723 
0.1312270051 
0.1265572979 
0.1227151545 
0.1485375252 
0.1252089488 
0.1378943461 
0.1393621304 
0.1516801725 
0.1426951765 
0.1348860368 
0.1621633975 
0.1071854748 
0.1139302563 
0.09979415584 
0.1105794599 
0.1058632637 
0.1362784409 
0.1505910767 
0.1439095047 
0.1327828431 
0.132793653 
0.1367304489 
0.1271845841 
0.1387009376 
0.1353347227 
0.184554812 
0.1356224869 
0.1325281812 
0.1375517001 
0.1268767821 
0.115154101 
0.1391787623 
0.1438299924 
0.1446369294 
0.1536273772 
0.1175217374 
0.1514434952 
0.138073944 
0.1142388216 
0.1171872559 
0.1199005249 
0.1282346459 
0.1388049523 
0.1500530511 
0.1491179466 
0.1297117662 
0.1373507218 
0.1258701519 
0.127969086 
0.1673066225 
0.1177195526 
0.1247995086 
0.101084217 
0.1276011459 
0.1169075421 
0.1142186415 
0.1193204009 
0.1151057173 
0.1233284111 
0.1198466763 
0.131683498 
0.1853655897 
0.1377550136 
0.1260463898 
0.1145512648 
0.1184992242 
0.1158495003 
0.1531639219 
0.1207464925 
0.1377830533 
0.1254552474 
0.132727447 
0.1296470552 
0.1892408092 
0.1326130188 
0.1281361149 
0.1201751967 
0.1411845092 
0.1399505174 
0.1923060054 
0.1325671005 
0.1709178441 
0.1468132838 
0.1359538431 
0.125061407 
0.1397792084 
0.1416953598 
0.1412395153 
0.1310946408 
0.1383236609 
0.1295695673 
0.1541595473 
0.1465566478 
0.118112358 
0.1409590491 
0.1060365392 
0.1448886423 
0.1122717863 
0.1430355308 
0.1578334794 
0.1426606689 
0.1264554715 
0.1420108866 
0.1369505079 
0.1174724584 
0.1437955457 
0.1497970627 
0.1353827009 
0.127273059 
0.1318623917 
0.1270459718 
0.1571063497 
0.1456496814 
0.1206093611 
0.1307737868 
0.1275759225 
0.1698574884 
0.1178593736 
0.1297725331 
0.1813458316 
0.1025587347 
0.1021794692 
0.1195880935 
0.1082945435 
0.1219318042 
0.1132437294 
0.1245277836 
0.1351973817 
0.1282908479 
0.123614982 
0.1395654376 
0.1239010143 
0.127715386 
0.1124339738 
0.1145768892 
0.1242570867 
0.1383476598 
0.143326066 
0.1450589811 
0.1379780657 
0.1384750645 
0.1288252269 
0.1187463337 
0.1196518779 
0.119322659 
0.1070631529 
0.1434660422 
0.1299404844 
0.1290977453 
0.1163740152 
0.1369324235 
0.1253800582 
0.1120062794 
0.1291569959 
0.1175929577 
0.1362240067 
0.1593327746 
0.1181107084 
0.1415439848 
0.1270396233 
0.1287052926 
0.1243231735 
0.1267577178 
0.1348994203 
0.1264654559 
0.1399646688 
0.1248664596 
0.1327547646 
0.1428166397 
0.1380334397 
0.1480583121 
0.1408052821 
0.1334641175 
0.1314874641 
0.1634114586 
0.159947168 
0.1387598464 
0.1351597631 
0.139750165 
0.1224819253 
0.1306877104 
0.115110263 
0.1386967837 
0.1354116363 
0.1453080207 
0.170519072 
0.1258826833 
0.1536140147 
0.1339994903 
0.1348603716 
0.1443787224 
0.1543939176 
0.129275362 
0.1442354389 
0.1469421024 
0.1310942033 
0.1332717158 
0.1556051474 
0.1503476929 
0.1356395537 
0.1372500021 
0.140885866 
0.1277947027 
0.1168059628 
0.1478374492 
0.1213692486 
0.1177437093 
0.1252149363 
0.1461922303 
0.1286390299 
0.1253521584 
0.124443875 
0.1344317369 
0.1522517442 
0.155625619 
0.1589111387 
0.1138201192 
0.1454922241 
0.1061641984 
0.1312391751 
0.1346846747 
0.1227293225 
0.1374859932 
0.1253233926 
0.1273646269 
0.1217800045 
0.1587751349 
0.09821474145 
0.08519856518 
0.1413851898 
0.1410632896 
0.1318665503 
0.1423042889 
0.1235172471 
0.1255459255 
0.1395962016 
0.1395774118 
0.1242068897 
0.1221141731 
0.1303454397 
0.137516025 
0.1323263891 
0.1242368903 
0.1423476749 
0.1754355717 
0.1703239182 
0.1403184705 
0.1895216557 
0.09317665738 
0.09143529034 
0.1253841547 
0.1404315869 
0.1241763358 
0.1348429393 
0.1292328694 
0.1291473339 
0.1216901502 
0.1265185337 
0.135295272 
0.1340411053 
0.1192518611 