# vtk DataFile Version 3.0
MOAB 4.1.0pre
ASCII
DATASET UNSTRUCTURED_GRID
POINTS 729 double
-5 -5 -5
-5 -5 -3.12
-5 -5 -1.25
-5 -5 0.62
-5 -5 2.5
-5 -5 4.38
-5 -5 6.25
-5 -5 8.12
-5 -5 10
-5 -3.12 -5
-5 -3.12 -3.12
-5 -3.12 -1.25
-5 -3.12 0.62
-5 -3.12 2.5
-5 -3.12 4.38
-5 -3.12 6.25
-5 -3.12 8.12
-5 -3.12 10
-5 -1.25 -5
-5 -1.25 -3.12
-5 -1.25 -1.25
-5 -1.25 0.62
-5 -1.25 2.5
-5 -1.25 4.38
-5 -1.25 6.25
-5 -1.25 8.12
-5 -1.25 10
-5 0.62 -5
-5 0.62 -3.12
-5 0.62 -1.25
-5 0.62 0.62
-5 0.62 2.5
-5 0.62 4.38
-5 0.62 6.25
-5 0.62 8.12
-5 0.62 10
-5 2.5 -5
-5 2.5 -3.12
-5 2.5 -1.25
-5 2.5 0.62
-5 2.5 2.5
-5 2.5 4.38
-5 2.5 6.25
-5 2.5 8.12
-5 2.5 10
-5 4.38 -5
-5 4.38 -3.12
-5 4.38 -1.25
-5 4.38 0.62
-5 4.38 2.5
-5 4.38 4.38
-5 4.38 6.25
-5 4.38 8.12
-5 4.38 10
-5 6.25 -5
-5 6.25 -3.12
-5 6.25 -1.25
-5 6.25 0.62
-5 6.25 2.5
-5 6.25 4.38
-5 6.25 6.25
-5 6.25 8.12
-5 6.25 10
-5 8.12 -5
-5 8.12 -3.12
-5 8.12 -1.25
-5 8.12 0.62
-5 8.12 2.5
-5 8.12 4.38
-5 8.12 6.25
-5 8.12 8.12
-5 8.12 10
-5 10 -5
-5 10 -3.12
-5 10 -1.25
-5 10 0.62
-5 10 2.5
-5 10 4.38
-5 10 6.25
-5 10 8.12
-5 10 10
-3.12 -5 -5
-3.12 -5 -3.12
-3.12 -5 -1.25
-3.12 -5 0.62
-3.12 -5 2.5
-3.12 -5 4.38
-3.12 -5 6.25
-3.12 -5 8.12
-3.12 -5 10
-3.12 -3.12 -5
-3.12 -3.12 -3.12
-3.12 -3.12 -1.25
-3.12 -3.12 0.62
-3.12 -3.12 2.5
-3.12 -3.12 4.38
-3.12 -3.12 6.25
-3.12 -3.12 8.12
-3.12 -3.12 10
-3.12 -1.25 -5
-3.12 -1.25 -3.12
-3.12 -1.25 -1.25
-3.12 -1.25 0.62
-3.12 -1.25 2.5
-3.12 -1.25 4.38
-3.12 -1.25 6.25
-3.12 -1.25 8.12
-3.12 -1.25 10
-3.12 0.62 -5
-3.12 0.62 -3.12
-3.12 0.62 -1.25
-3.12 0.62 0.62
-3.12 0.62 2.5
-3.12 0.62 4.38
-3.12 0.62 6.25
-3.12 0.62 8.12
-3.12 0.62 10
-3.12 2.5 -5
-3.12 2.5 -3.12
-3.12 2.5 -1.25
-3.12 2.5 0.62
-3.12 2.5 2.5
-3.12 2.5 4.38
-3.12 2.5 6.25
-3.12 2.5 8.12
-3.12 2.5 10
-3.12 4.38 -5
-3.12 4.38 -3.12
-3.12 4.38 -1.25
-3.12 4.38 0.62
-3.12 4.38 2.5
-3.12 4.38 4.38
-3.12 4.38 6.25
-3.12 4.38 8.12
-3.12 4.38 10
-3.12 6.25 -5
-3.12 6.25 -3.12
-3.12 6.25 -1.25
-3.12 6.25 0.62
-3.12 6.25 2.5
-3.12 6.25 4.38
-3.12 6.25 6.25
-3.12 6.25 8.12
-3.12 6.25 10
-3.12 8.12 -5
-3.12 8.12 -3.12
-3.12 8.12 -1.25
-3.12 8.12 0.62
-3.12 8.12 2.5
-3.12 8.12 4.38
-3.12 8.12 6.25
-3.12 8.12 8.12
-3.12 8.12 10
-3.12 10 -5
-3.12 10 -3.12
-3.12 10 -1.25
-3.12 10 0.62
-3.12 10 2.5
-3.12 10 4.38
-3.12 10 6.25
-3.12 10 8.12
-3.12 10 10
-1.25 -5 -5
-1.25 -5 -3.12
-1.25 -5 -1.25
-1.25 -5 0.62
-1.25 -5 2.5
-1.25 -5 4.38
-1.25 -5 6.25
-1.25 -5 8.12
-1.25 -5 10
-1.25 -3.12 -5
-1.25 -3.12 -3.12
-1.25 -3.12 -1.25
-1.25 -3.12 0.62
-1.25 -3.12 2.5
-1.25 -3.12 4.38
-1.25 -3.12 6.25
-1.25 -3.12 8.12
-1.25 -3.12 10
-1.25 -1.25 -5
-1.25 -1.25 -3.12
-1.25 -1.25 -1.25
-1.25 -1.25 0.62
-1.25 -1.25 2.5
-1.25 -1.25 4.38
-1.25 -1.25 6.25
-1.25 -1.25 8.12
-1.25 -1.25 10
-1.25 0.62 -5
-1.25 0.62 -3.12
-1.25 0.62 -1.25
-1.25 0.62 0.62
-1.25 0.62 2.5
-1.25 0.62 4.38
-1.25 0.62 6.25
-1.25 0.62 8.12
-1.25 0.62 10
-1.25 2.5 -5
-1.25 2.5 -3.12
-1.25 2.5 -1.25
-1.25 2.5 0.62
-1.25 2.5 2.5
-1.25 2.5 4.38
-1.25 2.5 6.25
-1.25 2.5 8.12
-1.25 2.5 10
-1.25 4.38 -5
-1.25 4.38 -3.12
-1.25 4.38 -1.25
-1.25 4.38 0.62
-1.25 4.38 2.5
-1.25 4.38 4.38
-1.25 4.38 6.25
-1.25 4.38 8.12
-1.25 4.38 10
-1.25 6.25 -5
-1.25 6.25 -3.12
-1.25 6.25 -1.25
-1.25 6.25 0.62
-1.25 6.25 2.5
-1.25 6.25 4.38
-1.25 6.25 6.25
-1.25 6.25 8.12
-1.25 6.25 10
-1.25 8.12 -5
-1.25 8.12 -3.12
-1.25 8.12 -1.25
-1.25 8.12 0.62
-1.25 8.12 2.5
-1.25 8.12 4.38
-1.25 8.12 6.25
-1.25 8.12 8.12
-1.25 8.12 10
-1.25 10 -5
-1.25 10 -3.12
-1.25 10 -1.25
-1.25 10 0.62
-1.25 10 2.5
-1.25 10 4.38
-1.25 10 6.25
-1.25 10 8.12
-1.25 10 10
0.62 -5 -5
0.62 -5 -3.12
0.62 -5 -1.25
0.62 -5 0.62
0.62 -5 2.5
0.62 -5 4.38
0.62 -5 6.25
0.62 -5 8.12
0.62 -5 10
0.62 -3.12 -5
0.62 -3.12 -3.12
0.62 -3.12 -1.25
0.62 -3.12 0.62
0.62 -3.12 2.5
0.62 -3.12 4.38
0.62 -3.12 6.25
0.62 -3.12 8.12
0.62 -3.12 10
0.62 -1.25 -5
0.62 -1.25 -3.12
0.62 -1.25 -1.25
0.62 -1.25 0.62
0.62 -1.25 2.5
0.62 -1.25 4.38
0.62 -1.25 6.25
0.62 -1.25 8.12
0.62 -1.25 10
0.62 0.62 -5
0.62 0.62 -3.12
0.62 0.62 -1.25
0.62 0.62 0.62
0.62 0.62 2.5
0.62 0.62 4.38
0.62 0.62 6.25
0.62 0.62 8.12
0.62 0.62 10
0.62 2.5 -5
0.62 2.5 -3.12
0.62 2.5 -1.25
0.62 2.5 0.62
0.62 2.5 2.5
0.62 2.5 4.38
0.62 2.5 6.25
0.62 2.5 8.12
0.62 2.5 10
0.62 4.38 -5
0.62 4.38 -3.12
0.62 4.38 -1.25
0.62 4.38 0.62
0.62 4.38 2.5
0.62 4.38 4.38
0.62 4.38 6.25
0.62 4.38 8.12
0.62 4.38 10
0.62 6.25 -5
0.62 6.25 -3.12
0.62 6.25 -1.25
0.62 6.25 0.62
0.62 6.25 2.5
0.62 6.25 4.38
0.62 6.25 6.25
0.62 6.25 8.12
0.62 6.25 10
0.62 8.12 -5
0.62 8.12 -3.12
0.62 8.12 -1.25
0.62 8.12 0.62
0.62 8.12 2.5
0.62 8.12 4.38
0.62 8.12 6.25
0.62 8.12 8.12
0.62 8.12 10
0.62 10 -5
0.62 10 -3.12
0.62 10 -1.25
0.62 10 0.62
0.62 10 2.5
0.62 10 4.38
0.62 10 6.25
0.62 10 8.12
0.62 10 10
2.5 -5 -5
2.5 -5 -3.12
2.5 -5 -1.25
2.5 -5 0.62
2.5 -5 2.5
2.5 -5 4.38
2.5 -5 6.25
2.5 -5 8.12
2.5 -5 10
2.5 -3.12 -5
2.5 -3.12 -3.12
2.5 -3.12 -1.25
2.5 -3.12 0.62
2.5 -3.12 2.5
2.5 -3.12 4.38
2.5 -3.12 6.25
2.5 -3.12 8.12
2.5 -3.12 10
2.5 -1.25 -5
2.5 -1.25 -3.12
2.5 -1.25 -1.25
2.5 -1.25 0.62
2.5 -1.25 2.5
2.5 -1.25 4.38
2.5 -1.25 6.25
2.5 -1.25 8.12
2.5 -1.25 10
2.5 0.62 -5
2.5 0.62 -3.12
2.5 0.62 -1.25
2.5 0.62 0.62
2.5 0.62 2.5
2.5 0.62 4.38
2.5 0.62 6.25
2.5 0.62 8.12
2.5 0.62 10
2.5 2.5 -5
2.5 2.5 -3.12
2.5 2.5 -1.25
2.5 2.5 0.62
2.5 2.5 2.5
2.5 2.5 4.38
2.5 2.5 6.25
2.5 2.5 8.12
2.5 2.5 10
2.5 4.38 -5
2.5 4.38 -3.12
2.5 4.38 -1.25
2.5 4.38 0.62
2.5 4.38 2.5
2.5 4.38 4.38
2.5 4.38 6.25
2.5 4.38 8.12
2.5 4.38 10
2.5 6.25 -5
2.5 6.25 -3.12
2.5 6.25 -1.25
2.5 6.25 0.62
2.5 6.25 2.5
2.5 6.25 4.38
2.5 6.25 6.25
2.5 6.25 8.12
2.5 6.25 10
2.5 8.12 -5
2.5 8.12 -3.12
2.5 8.12 -1.25
2.5 8.12 0.62
2.5 8.12 2.5
2.5 8.12 4.38
2.5 8.12 6.25
2.5 8.12 8.12
2.5 8.12 10
2.5 10 -5
2.5 10 -3.12
2.5 10 -1.25
2.5 10 0.62
2.5 10 2.5
2.5 10 4.38
2.5 10 6.25
2.5 10 8.12
2.5 10 10
4.38 -5 -5
4.38 -5 -3.12
4.38 -5 -1.25
4.38 -5 0.62
4.38 -5 2.5
4.38 -5 4.38
4.38 -5 6.25
4.38 -5 8.12
4.38 -5 10
4.38 -3.12 -5
4.38 -3.12 -3.12
4.38 -3.12 -1.25
4.38 -3.12 0.62
4.38 -3.12 2.5
4.38 -3.12 4.38
4.38 -3.12 6.25
4.38 -3.12 8.12
4.38 -3.12 10
4.38 -1.25 -5
4.38 -1.25 -3.12
4.38 -1.25 -1.25
4.38 -1.25 0.62
4.38 -1.25 2.5
4.38 -1.25 4.38
4.38 -1.25 6.25
4.38 -1.25 8.12
4.38 -1.25 10
4.38 0.62 -5
4.38 0.62 -3.12
4.38 0.62 -1.25
4.38 0.62 0.62
4.38 0.62 2.5
4.38 0.62 4.38
4.38 0.62 6.25
4.38 0.62 8.12
4.38 0.62 10
4.38 2.5 -5
4.38 2.5 -3.12
4.38 2.5 -1.25
4.38 2.5 0.62
4.38 2.5 2.5
4.38 2.5 4.38
4.38 2.5 6.25
4.38 2.5 8.12
4.38 2.5 10
4.38 4.38 -5
4.38 4.38 -3.12
4.38 4.38 -1.25
4.38 4.38 0.62
4.38 4.38 2.5
4.38 4.38 4.38
4.38 4.38 6.25
4.38 4.38 8.12
4.38 4.38 10
4.38 6.25 -5
4.38 6.25 -3.12
4.38 6.25 -1.25
4.38 6.25 0.62
4.38 6.25 2.5
4.38 6.25 4.38
4.38 6.25 6.25
4.38 6.25 8.12
4.38 6.25 10
4.38 8.12 -5
4.38 8.12 -3.12
4.38 8.12 -1.25
4.38 8.12 0.62
4.38 8.12 2.5
4.38 8.12 4.38
4.38 8.12 6.25
4.38 8.12 8.12
4.38 8.12 10
4.38 10 -5
4.38 10 -3.12
4.38 10 -1.25
4.38 10 0.62
4.38 10 2.5
4.38 10 4.38
4.38 10 6.25
4.38 10 8.12
4.38 10 10
6.25 -5 -5
6.25 -5 -3.12
6.25 -5 -1.25
6.25 -5 0.62
6.25 -5 2.5
6.25 -5 4.38
6.25 -5 6.25
6.25 -5 8.12
6.25 -5 10
6.25 -3.12 -5
6.25 -3.12 -3.12
6.25 -3.12 -1.25
6.25 -3.12 0.62
6.25 -3.12 2.5
6.25 -3.12 4.38
6.25 -3.12 6.25
6.25 -3.12 8.12
6.25 -3.12 10
6.25 -1.25 -5
6.25 -1.25 -3.12
6.25 -1.25 -1.25
6.25 -1.25 0.62
6.25 -1.25 2.5
6.25 -1.25 4.38
6.25 -1.25 6.25
6.25 -1.25 8.12
6.25 -1.25 10
6.25 0.62 -5
6.25 0.62 -3.12
6.25 0.62 -1.25
6.25 0.62 0.62
6.25 0.62 2.5
6.25 0.62 4.38
6.25 0.62 6.25
6.25 0.62 8.12
6.25 0.62 10
6.25 2.5 -5
6.25 2.5 -3.12
6.25 2.5 -1.25
6.25 2.5 0.62
6.25 2.5 2.5
6.25 2.5 4.38
6.25 2.5 6.25
6.25 2.5 8.12
6.25 2.5 10
6.25 4.38 -5
6.25 4.38 -3.12
6.25 4.38 -1.25
6.25 4.38 0.62
6.25 4.38 2.5
6.25 4.38 4.38
6.25 4.38 6.25
6.25 4.38 8.12
6.25 4.38 10
6.25 6.25 -5
6.25 6.25 -3.12
6.25 6.25 -1.25
6.25 6.25 0.62
6.25 6.25 2.5
6.25 6.25 4.38
6.25 6.25 6.25
6.25 6.25 8.12
6.25 6.25 10
6.25 8.12 -5
6.25 8.12 -3.12
6.25 8.12 -1.25
6.25 8.12 0.62
6.25 8.12 2.5
6.25 8.12 4.38
6.25 8.12 6.25
6.25 8.12 8.12
6.25 8.12 10
6.25 10 -5
6.25 10 -3.12
6.25 10 -1.25
6.25 10 0.62
6.25 10 2.5
6.25 10 4.38
6.25 10 6.25
6.25 10 8.12
6.25 10 10
8.12 -5 -5
8.12 -5 -3.12
8.12 -5 -1.25
8.12 -5 0.62
8.12 -5 2.5
8.12 -5 4.38
8.12 -5 6.25
8.12 -5 8.12
8.12 -5 10
8.12 -3.12 -5
8.12 -3.12 -3.12
8.12 -3.12 -1.25
8.12 -3.12 0.62
8.12 -3.12 2.5
8.12 -3.12 4.38
8.12 -3.12 6.25
8.12 -3.12 8.12
8.12 -3.12 10
8.12 -1.25 -5
8.12 -1.25 -3.12
8.12 -1.25 -1.25
8.12 -1.25 0.62
8.12 -1.25 2.5
8.12 -1.25 4.38
8.12 -1.25 6.25
8.12 -1.25 8.12
8.12 -1.25 10
8.12 0.62 -5
8.12 0.62 -3.12
8.12 0.62 -1.25
8.12 0.62 0.62
8.12 0.62 2.5
8.12 0.62 4.38
8.12 0.62 6.25
8.12 0.62 8.12
8.12 0.62 10
8.12 2.5 -5
8.12 2.5 -3.12
8.12 2.5 -1.25
8.12 2.5 0.62
8.12 2.5 2.5
8.12 2.5 4.38
8.12 2.5 6.25
8.12 2.5 8.12
8.12 2.5 10
8.12 4.38 -5
8.12 4.38 -3.12
8.12 4.38 -1.25
8.12 4.38 0.62
8.12 4.38 2.5
8.12 4.38 4.38
8.12 4.38 6.25
8.12 4.38 8.12
8.12 4.38 10
8.12 6.25 -5
8.12 6.25 -3.12
8.12 6.25 -1.25
8.12 6.25 0.62
8.12 6.25 2.5
8.12 6.25 4.38
8.12 6.25 6.25
8.12 6.25 8.12
8.12 6.25 10
8.12 8.12 -5
8.12 8.12 -3.12
8.12 8.12 -1.25
8.12 8.12 0.62
8.12 8.12 2.5
8.12 8.12 4.38
8.12 8.12 6.25
8.12 8.12 8.12
8.12 8.12 10
8.12 10 -5
8.12 10 -3.12
8.12 10 -1.25
8.12 10 0.62
8.12 10 2.5
8.12 10 4.38
8.12 10 6.25
8.12 10 8.12
8.12 10 10
10 -5 -5
10 -5 -3.12
10 -5 -1.25
10 -5 0.62
10 -5 2.5
10 -5 4.38
10 -5 6.25
10 -5 8.12
10 -5 10
10 -3.12 -5
10 -3.12 -3.12
10 -3.12 -1.25
10 -3.12 0.62
10 -3.12 2.5
10 -3.12 4.38
10 -3.12 6.25
10 -3.12 8.12
10 -3.12 10
10 -1.25 -5
10 -1.25 -3.12
10 -1.25 -1.25
10 -1.25 0.62
10 -1.25 2.5
10 -1.25 4.38
10 -1.25 6.25
10 -1.25 8.12
10 -1.25 10
10 0.62 -5
10 0.62 -3.12
10 0.62 -1.25
10 0.62 0.62
10 0.62 2.5
10 0.62 4.38
10 0.62 6.25
10 0.62 8.12
10 0.62 10
10 2.5 -5
10 2.5 -3.12
10 2.5 -1.25
10 2.5 0.62
10 2.5 2.5
10 2.5 4.38
10 2.5 6.25
10 2.5 8.12
10 2.5 10
10 4.38 -5
10 4.38 -3.12
10 4.38 -1.25
10 4.38 0.62
10 4.38 2.5
10 4.38 4.38
10 4.38 6.25
10 4.38 8.12
10 4.38 10
10 6.25 -5
10 6.25 -3.12
[...]
CELL_DATA 512
SCALARS n_group_001 double 1
LOOKUP_TABLE default
518655000 
564150000 
674675000 
710540000 
605760000 
128787000 
0 
0 
617905000 
797260000 
942115000 
1004835000 
820360000 
108445500 
0 
0 
622230000 
994200000 
931625000 
904410000 
792075000 
114773000 
0 
0 
578025000 
906675000 
1080915000 
969615000 
862825000 
177445000 
0 
0 
690435000 
948915000 
806720000 
793395000 
791580000 
151453500 
0 
0 
115853000 
136168000 
130542000 
114942500 
117744000 
26170350 
0 
0 
0 
0 
0 
0 
0 
0 
0 
0 
0 
0 
0 
0 
0 
0 
0 
0 
3135095000 
4463430000 
3745205000 
3955730000 
3730060000 
614665000 
0 
0 
4020540000 
5333100000 
4962585000 
5071500000 
4658350000 
896245000 
0 
0 
4041405000 
5120800000 
4806305000 
4913410000 
4541715000 
994155000 
0 
0 
4291650000 
5113600000 
5030600000 
4908025000 
5083150000 
1149400000 
0 
0 
3839695000 
4813275000 
4666620000 
4842070000 
4285615000 
722465000 
0 
0 
766745000 
907715000 
966150000 
1026600000 
858930000 
133478000 
0 
0 
0 
0 
0 
0 
0 
0 
0 
0 
0 
0 
0 
0 
0 
0 
0 
0 
5090250000 
8599900000 
9529450000 
9522450000 
7139500000 
1052600000 
0 
0 
9042600000 
1.493595e+10 
1.505185e+10 
1.522255e+10 
1.22163e+10 
1822545000 
0 
0 
9881250000 
1.531755e+10 
1.67798e+10 
1.55462e+10 
1.31616e+10 
2135350000 
0 
0 
9271600000 
1.59922e+10 
1.63524e+10 
1.569485e+10 
1.18482e+10 
1963740000 
0 
0 
6635450000 
1.06323e+10 
1.227275e+10 
1.207475e+10 
8539200000 
1247845000 
0 
0 
1197105000 
1613665000 
2046790000 
1847460000 
1293455000 
251183500 
0 
0 
0 
0 
0 
0 
0 
0 
0 
0 
0 
0 
0 
0 
0 
0 
0 
0 
3865435000 
5896950000 
5772950000 
6019350000 
4831175000 
715390000 
0 
0 
5832600000 
8225300000 
8710500000 
8476650000 
7434500000 
1438410000 
0 
0 
6457050000 
8222500000 
8463700000 
8603250000 
7608500000 
1584590000 
0 
0 
5984200000 
8820400000 
8685750000 
8922300000 
7117900000 
1441090000 
0 
0 
4816340000 
7611100000 
7180050000 
7470100000 
5950150000 
868680000 
0 
0 
802320000 
1344710000 
1482720000 
1371875000 
1064240000 
174570500 
0 
0 
0 
0 
0 
0 
0 
0 
0 
0 
0 
0 
0 
0 
0 
0 
0 
0 
859815000 
1100245000 
954715000 
1127420000 
1022435000 
211865500 
0 
0 
1160080000 
1709230000 
1617640000 
1775765000 
1363575000 
241486000 
0 
0 
1084330000 
1456580000 
1756190000 
1801660000 
1406425000 
280431500 
0 
0 
1088535000 
1614770000 
1633445000 
1727660000 
1478235000 
241482500 
0 
0 
1107020000 
1501865000 
1435105000 
1209410000 
1245510000 
331941500 
0 
0 
204456000 
231947000 
252100000 
284380500 
312655500 
84033500 
0 
0 
0 
0 
0 
0 
0 
0 
0 
0 
0 
0 
0 
0 
0 
0 
0 
0 
40739850 
67910500 
99812000 
89304500 
89050500 
12154500 
0 
0 
142677500 
116167000 
166437000 
117861500 
99165500 
18036650 
0 
0 
97080000 
129683000 
172326500 
197539000 
140162000 
27277250 
0 
0 
112737500 
146129000 
140957500 
184401000 
123214500 
28465350 
0 
0 
70028500 
146855500 
123043500 
78260000 
67440000 
13283550 
0 
0 
13117050 
25418050 
9900400 
18845600 
12699650 
4785155 
0 
0 
0 
0 
0 
0 
0 
0 
0 
0 
0 
0 
0 
0 
0 
0 
0 
0 
0 
0 
0 
0 
0 
0 
0 
0 
0 
0 
0 
0 
0 
0 
0 
0 
0 
0 
0 
0 
0 
0 
0 
0 
0 
0 
0 
0 
0 
0 
0 
0 
0 
0 
0 
0 
0 
0 
0 
0 
0 
0 
0 
0 
0 
0 
0 
0 
0 
0 
0 
0 
0 
0 
0 
0 
0 
0 
0 
0 
0 
0 
0 
0 
0 
0 
0 
0 
0 
0 
0 
0 
0 
0 
0 
0 
0 
0 
0 
0 
0 
0 
0 
0 
0 
0 
0 
0 
0 
0 
0 
0 
0 
0 
0 
0 
0 
0 
0 
0 
0 
0 
0 
0 
0 
0 
0 
0 
0 
0 
0 
0 
0 
0 
0 
0 
0 
0 
0 
0 
0 
0 
0 
0 
0 
0 
0 
0 
SCALARS n_group_001_error double 1
LOOKUP_TABLE default
0.133531 
0.119171 
0.102399 
0.111063 
0.120843 
0.190672 
0 
0 
0.10824 
0.0993922 
0.0920094 
0.0941062 
0.100174 
0.190661 
0 
0 
0.11189 
0.0869662 
0.0862332 
0.0913295 
0.101118 
0.185926 
0 
0 
0.115834 
0.0887464 
0.085955 
0.0884957 
0.0969628 
0.176808 
0 
0 
0.108049 
0.0987204 
0.103182 
0.100819 
0.108104 
0.178051 
0 
0 
0.211265 
0.184892 
0.186442 
0.201903 
0.183261 
0.378842 
0 
0 
0 
0 
0 
0 
0 
0 
0 
0 
0 
0 
0 
0 
0 
0 
0 
0 
0.0647579 
0.0536608 
0.0550727 
0.0550002 
0.0601706 
0.103818 
0 
0 
0.0577018 
0.0451234 
0.0467475 
0.0461596 
0.0513628 
0.0862041 
0 
0 
0.053002 
0.0455537 
0.045159 
0.0439913 
0.0495867 
0.0817048 
0 
0 
0.0531238 
0.0449851 
0.0438437 
0.0457463 
0.0485982 
0.0790397 
0 
0 
0.0561198 
0.0501869 
0.0504549 
0.0504213 
0.0561383 
0.0970375 
0 
0 
0.0972606 
0.0960292 
0.0868335 
0.0821303 
0.09987 
0.174463 
0 
0 
0 
0 
0 
0 
0 
0 
0 
0 
0 
0 
0 
0 
0 
0 
0 
0 
0.0534722 
0.0418123 
0.0403012 
0.0416818 
0.0480266 
0.086994 
0 
0 
0.0426311 
0.0343148 
0.0321402 
0.0334434 
0.0378089 
0.0648406 
0 
0 
0.0405808 
0.0320619 
0.0303128 
0.032389 
0.0362859 
0.0601098 
0 
0 
0.0410835 
0.0327266 
0.0311703 
0.0321834 
0.0383086 
0.0609183 
0 
0 
0.0485638 
0.0387717 
0.0371019 
0.0374539 
0.043824 
0.0792211 
0 
0 
0.084594 
0.0723921 
0.063844 
0.062392 
0.0776248 
0.144341 
0 
0 
0 
0 
0 
0 
0 
0 
0 
0 
0 
0 
0 
0 
0 
0 
0 
0 
0.0611922 
0.0495045 
0.0484846 
0.0504282 
0.0552486 
0.0980823 
0 
0 
0.0494008 
0.0406135 
0.0380227 
0.0395998 
0.0440877 
0.0700599 
0 
0 
0.0458599 
0.0377513 
0.037334 
0.0383182 
0.0436071 
0.0679924 
0 
0 
0.0481431 
0.0384404 
0.0369509 
0.0375615 
0.0451291 
0.0697346 
0 
0 
0.0555746 
0.0437842 
0.0424865 
0.0428679 
0.0498162 
0.0884025 
0 
0 
0.0959055 
0.0776828 
0.0708095 
0.0708001 
0.0825472 
0.167856 
0 
0 
0 
0 
0 
0 
0 
0 
0 
0 
0 
0 
0 
0 
0 
0 
0 
0 
0.106258 
0.0896575 
0.0912725 
0.0923747 
0.0969874 
0.162043 
0 
0 
0.087565 
0.0758833 
0.0717904 
0.0688635 
0.081045 
0.138086 
0 
0 
0.0867623 
0.0773766 
0.0669012 
0.0704691 
0.0766962 
0.149456 
0 
0 
0.0876162 
0.0753249 
0.067704 
0.0695351 
0.0790102 
0.13866 
0 
0 
0.0966875 
0.0790439 
0.0807435 
0.0819681 
0.0885786 
0.144315 
0 
0 
0.191209 
0.174867 
0.141384 
0.139576 
0.155838 
0.252746 
0 
0 
0 
0 
0 
0 
0 
0 
0 
0 
0 
0 
0 
0 
0 
0 
0 
0 
0.258986 
0.249862 
0.198468 
0.190835 
0.210731 
0.524598 
0 
0 
0.171578 
0.194176 
0.158733 
0.169702 
0.192831 
0.377537 
0 
0 
0.200592 
0.162534 
0.135019 
0.131355 
0.174398 
0.321296 
0 
0 
0.208047 
0.151224 
0.154898 
0.154898 
0.183175 
0.299556 
0 
0 
0.263909 
0.18468 
0.165507 
0.190988 
0.206922 
0.455272 
0 
0 
0.46207 
0.343387 
0.62985 
0.432082 
0.358733 
0.543148 
0 
0 
0 
0 
0 
0 
0 
0 
0 
0 
0 
0 
0 
0 
0 
0 
0 
0 
0 
0 
0 
0 
0 
0 
0 
0 
0 
0 
0 
0 
0 
0 
0 
0 
0 
0 
0 
0 
0 
0 
0 
0 
0 
0 
0 
0 
0 
0 
0 
0 
0 
0 
0 
0 
0 
0 
0 
0 
0 
0 
0 
0 
0 
0 
0 
0 
0 
0 
0 
0 
0 
0 
0 
0 
0 
0 
0 
0 
0 
0 
0 
0 
0 
0 
0 
0 
0 
0 
0 
0 
0 
0 
0 
0 
0 
0 
0 
0 
0 
0 
0 
0 
0 
0 
0 
0 
0 
0 
0 
0 
0 
0 
0 
0 
0 
0 
0 
0 
0 
0 
0 
0 
0 
0 
0 
0 
0 
0 
0 
0 
0 
0 
0 
0 
0 
0 
0 
0 
0 
0 
0 
0 
0 
0 
0 
0 
SCALARS n_group_002 double 1
LOOKUP_TABLE default
257666500 
295281000 
339228500 
307353000 
229017500 
34311200 
0 
0 
331710000 
557010000 
633900000 
632495000 
458072000 
120784500 
0 
0 
493139000 
678670000 
643490000 
653375000 
515600000 
78470500 
0 
0 
428906500 
611595000 
629265000 
534135000 
609040000 
97278500 
0 
0 
235783000 
396737500 
456227000 
468009500 
499374000 
75396000 
0 
0 
43924400 
82042000 
79235000 
90034000 
111486500 
22199100 
0 
0 
0 
0 
0 
0 
0 
0 
0 
0 
0 
0 
0 
0 
0 
0 
0 
0 
1049825000 
1280825000 
1428970000 
1490395000 
1284170000 
224717000 
0 
0 
1541955000 
2024030000 
2321795000 
2063775000 
1914335000 
463319500 
0 
0 
1685035000 
2557640000 
2225425000 
2196105000 
1690005000 
420832000 
0 
0 
1760405000 
2675260000 
2377840000 
1986500000 
1819720000 
484626000 
0 
0 
1288740000 
1805095000 
1928210000 
1639980000 
1689025000 
303096500 
0 
0 
245080500 
380387000 
353574500 
274019000 
278263500 
49184950 
0 
0 
0 
0 
0 
0 
0 
0 
0 
0 
0 
0 
0 
0 
0 
0 
0 
0 
1566185000 
2599215000 
3118045000 
2965730000 
2139310000 
373405500 
0 
0 
2808035000 
4450260000 
4715855000 
4689095000 
3406315000 
571815000 
0 
0 
3258320000 
5061500000 
5492800000 
5188200000 
4181390000 
839860000 
0 
0 
2795985000 
4591595000 
5387450000 
4824890000 
3681195000 
684110000 
0 
0 
1909780000 
3166430000 
3664325000 
3616390000 
2716060000 
574930000 
0 
0 
401640000 
585610000 
663430000 
642715000 
422813500 
78757000 
0 
0 
0 
0 
0 
0 
0 
0 
0 
0 
0 
0 
0 
0 
0 
0 
0 
0 
1306580000 
1979370000 
2229060000 
2131555000 
1585620000 
281737000 
0 
0 
2003000000 
3265605000 
3372135000 
3323730000 
2615660000 
519480000 
0 
0 
2448140000 
3356875000 
3469895000 
3198995000 
2876780000 
552560000 
0 
0 
1980675000 
3253210000 
3650735000 
3209105000 
2324830000 
479754000 
0 
0 
1382840000 
2342680000 
2868645000 
2596105000 
2062250000 
365370000 
0 
0 
243403000 
425515500 
557205000 
466677500 
409942500 
80934500 
0 
0 
0 
0 
0 
0 
0 
0 
0 
0 
0 
0 
0 
0 
0 
0 
0 
0 
497211000 
685435000 
735005000 
678060000 
577530000 
141043000 
0 
0 
614670000 
866540000 
963040000 
862885000 
766025000 
99287000 
0 
0 
703300000 
795805000 
920555000 
1025075000 
667185000 
114106000 
0 
0 
516365000 
919445000 
1129495000 
827220000 
731315000 
125979000 
0 
0 
466131000 
805925000 
786630000 
673040000 
706525000 
152978000 
0 
0 
104481000 
116191500 
130526500 
128221000 
177634000 
60250000 
0 
0 
0 
0 
0 
0 
0 
0 
0 
0 
0 
0 
0 
0 
0 
0 
0 
0 
73814500 
59410000 
75102500 
93390000 
65754500 
20527000 
0 
0 
58663500 
85481000 
127014000 
98001000 
78206500 
18901450 
0 
0 
40357950 
75205500 
116442500 
125504500 
70862000 
5659950 
0 
0 
50517000 
135227500 
106558500 
94184000 
64439500 
19143450 
0 
0 
56889000 
69251000 
92358500 
66691000 
77229000 
4565810 
0 
0 
8815200 
11067300 
11736850 
18481550 
13773300 
741000 
0 
0 
0 
0 
0 
0 
0 
0 
0 
0 
0 
0 
0 
0 
0 
0 
0 
0 
0 
0 
0 
0 
0 
0 
0 
0 
0 
0 
0 
0 
0 
0 
0 
0 
0 
0 
0 
0 
0 
0 
0 
0 
0 
0 
0 
0 
0 
0 
0 
0 
0 
0 
0 
0 
0 
0 
0 
0 
0 
0 
0 
0 
0 
0 
0 
0 
0 
0 
0 
0 
0 
0 
0 
0 
0 
0 
0 
0 
0 
0 
0 
0 
0 
0 
0 
0 
0 
0 
0 
0 
0 
0 
0 
0 
0 
0 
0 
0 
0 
0 
0 
0 
0 
0 
0 
0 
0 
0 
0 
0 
0 
0 
0 
0 
0 
0 
0 
0 
0 
0 
0 
0 
0 
0 
0 
0 
0 
0 
0 
0 
0 
0 
0 
0 
0 
0 
0 
0 
0 
0 
0 
0 
0 
0 
0 
0 
SCALARS n_group_002_error double 1
LOOKUP_TABLE default
0.190627 
0.186394 
0.165041 
0.172197 
0.184291 
0.334498 
0 
0 
0.162609 
0.133785 
0.128294 
0.127903 
0.175708 
0.239694 
0 
0 
0.150746 
0.116929 
0.114671 
0.116803 
0.142799 
0.261612 
0 
0 
0.144439 
0.122803 
0.115482 
0.121427 
0.135345 
0.298097 
0 
0 
0.207639 
0.172871 
0.145789 
0.148892 
0.148979 
0.267531 
0 
0 
0.505712 
0.249811 
0.264984 
0.254629 
0.263134 
0.448821 
0 
0 
0 
0 
0 
0 
0 
0 
0 
0 
0 
0 
0 
0 
0 
0 
0 
0 
0.0864469 
0.0795121 
0.0840256 
0.0825772 
0.0784772 
0.144755 
0 
0 
0.0797194 
0.0756418 
0.0695551 
0.0715238 
0.0767348 
0.116516 
0 
0 
0.0763955 
0.0698884 
0.0712823 
0.0737207 
0.0778073 
0.127401 
0 
0 
0.0755554 
0.066186 
0.071049 
0.0745567 
0.0719778 
0.108916 
0 
0 
0.0790824 
0.0735531 
0.0769922 
0.0780299 
0.0731453 
0.128034 
0 
0 
0.143848 
0.118621 
0.125976 
0.129726 
0.132675 
0.259284 
0 
0 
0 
0 
0 
0 
0 
0 
0 
0 
0 
0 
0 
0 
0 
0 
0 
0 
0.0696415 
0.0546102 
0.0496374 
0.0518761 
0.0610216 
0.124498 
0 
0 
0.055415 
0.0434085 
0.0404523 
0.0416153 
0.0494721 
0.0898623 
0 
0 
0.0496544 
0.0408699 
0.0390447 
0.0393982 
0.0436603 
0.0804609 
0 
0 
0.051939 
0.0413403 
0.0389891 
0.0402954 
0.0461721 
0.0909034 
0 
0 
0.0635049 
0.0493629 
0.0469942 
0.0472067 
0.054253 
0.100912 
0 
0 
0.116244 
0.0928464 
0.0909716 
0.0890844 
0.107278 
0.211315 
0 
0 
0 
0 
0 
0 
0 
0 
0 
0 
0 
0 
0 
0 
0 
0 
0 
0 
0.074861 
0.064176 
0.0617927 
0.0628802 
0.0731471 
0.131646 
0 
0 
0.0640022 
0.0566228 
0.0551921 
0.0560845 
0.0582634 
0.0992683 
0 
0 
0.0606664 
0.0555689 
0.0555119 
0.0580996 
0.0567565 
0.0990913 
0 
0 
0.0633596 
0.0547995 
0.056244 
0.0572026 
0.061872 
0.105876 
0 
0 
0.0736952 
0.0587607 
0.0590837 
0.0577815 
0.0623508 
0.115923 
0 
0 
0.142218 
0.110372 
0.105159 
0.0995627 
0.115458 
0.227096 
0 
0 
0 
0 
0 
0 
0 
0 
0 
0 
0 
0 
0 
0 
0 
0 
0 
0 
0.136125 
0.127704 
0.122398 
0.126351 
0.130059 
0.208201 
0 
0 
0.140322 
0.108343 
0.104288 
0.106485 
0.129421 
0.233804 
0 
0 
0.125529 
0.107768 
0.105511 
0.109193 
0.119698 
0.22482 
0 
0 
0.153482 
0.11413 
0.0933008 
0.109908 
0.132135 
0.208983 
0 
0 
0.145181 
0.126038 
0.119213 
0.130518 
0.123866 
0.210655 
0 
0 
0.248157 
0.210184 
0.207033 
0.195298 
0.165743 
0.264161 
0 
0 
0 
0 
0 
0 
0 
0 
0 
0 
0 
0 
0 
0 
0 
0 
0 
0 
0.339204 
0.275345 
0.224462 
0.255066 
0.350237 
0.5987 
0 
0 
0.266183 
0.221555 
0.206025 
0.214263 
0.237827 
0.396344 
0 
0 
0.346754 
0.218098 
0.188123 
0.206707 
0.267623 
0.465384 
0 
0 
0.348641 
0.212664 
0.204223 
0.248442 
0.273135 
0.42142 
0 
0 
0.353629 
0.260286 
0.258744 
0.328043 
0.272959 
0.967847 
0 
0 
0.597729 
0.501298 
0.512749 
0.575936 
0.597838 
0.999999 
0 
0 
0 
0 
0 
0 
0 
0 
0 
0 
0 
0 
0 
0 
0 
0 
0 
0 
0 
0 
0 
0 
0 
0 
0 
0 
0 
0 
0 
0 
0 
0 
0 
0 
0 
0 
0 
0 
0 
0 
0 
0 
0 
0 
0 
0 
0 
0 
0 
0 
0 
0 
0 
0 
0 
0 
0 
0 
0 
0 
0 
0 
0 
0 
0 
0 
0 
0 
0 
0 
0 
0 
0 
0 
0 
0 
0 
0 
0 
0 
0 
0 
0 
0 
0 
0 
0 
0 
0 
0 
0 
0 
0 
0 
0 
0 
0 
0 
0 
0 
0 
0 
0 
0 
0 
0 
0 
0 
0 
0 
0 
0 
0 
0 
0 
0 
0 
0 
0 
0 
0 
0 
0 
0 
0 
0 
0 
0 
0 
0 
0 
0 
0 
0 
0 
0 
0 
0 
0 
0 
0 
0 
0 
0 
0 
0 
SCALARS n_group_003 double 1
LOOKUP_TABLE default
72703500 
95856000 
74023500 
44575200 
27603600 
12831200 
0 
0 
37340500 
153077500 
86029500 
120226000 
96223500 
9029750 
0 
0 
66063500 
101945000 
234705000 
168148000 
60205500 
8899000 
0 
0 
68914500 
81655000 
165873000 
127561000 
114620000 
15876300 
0 
0 
19666950 
54299000 
49500500 
71793000 
68853000 
0 
0 
0 
4650055 
18402100 
10793350 
10306950 
1230235 
0 
0 
0 
0 
0 
0 
0 
0 
0 
0 
0 
0 
0 
0 
0 
0 
0 
0 
0 
162035500 
173827500 
190868000 
226867500 
180742000 
28598450 
0 
0 
186364500 
316124500 
296571000 
341208000 
243693500 
43655350 
0 
0 
176900000 
402140000 
327302000 
356443000 
287611000 
49118100 
0 
0 
284224500 
418444500 
446852000 
369667500 
210388500 
32709600 
0 
0 
169360500 
224906000 
274771000 
280625000 
258877000 
50812000 
0 
0 
42602350 
37574350 
72805500 
68627500 
20636900 
11546750 
0 
0 
0 
0 
0 
0 
0 
0 
0 
0 
0 
0 
0 
0 
0 
0 
0 
0 
226660000 
293505000 
352559500 
429358000 
269044500 
41672950 
0 
0 
278564000 
566895000 
637630000 
605530000 
415675500 
66387000 
0 
0 
376419000 
690715000 
815540000 
728940000 
514245000 
88020000 
0 
0 
356964500 
647560000 
723425000 
666190000 
389284000 
79052000 
0 
0 
227647000 
360737500 
505995000 
449740500 
295619500 
31310100 
0 
0 
27845100 
62869500 
94532000 
95695500 
48100200 
23529750 
0 
0 
0 
0 
0 
0 
0 
0 
0 
0 
0 
0 
0 
0 
0 
0 
0 
0 
122148500 
270586000 
324590500 
289140500 
198207500 
44941050 
0 
0 
226252500 
425644000 
453084000 
402856500 
338827000 
76077500 
0 
0 
316429000 
506465000 
470286000 
392818500 
293486000 
63146000 
0 
0 
271476500 
262664000 
440740500 
474172500 
355339500 
69029500 
0 
0 
170175500 
315925000 
338091000 
420630500 
220173500 
33377450 
0 
0 
64337500 
43477050 
65027000 
81793500 
24011650 
2370105 
0 
0 
0 
0 
0 
0 
0 
0 
0 
0 
0 
0 
0 
0 
0 
0 
0 
0 
26688000 
70294500 
105949500 
81502500 
100533000 
18022500 
0 
0 
106233500 
150009000 
183469000 
80681000 
175517000 
26272850 
0 
0 
99819500 
180931500 
157478000 
163084500 
93536000 
21463650 
0 
0 
87917000 
110579500 
186379500 
190015000 
121256500 
24513800 
0 
0 
50796500 
76330000 
129091500 
115892000 
99840500 
11697400 
0 
0 
10385600 
22320250 
49203150 
17712950 
4250275 
0 
0 
0 
0 
0 
0 
0 
0 
0 
0 
0 
0 
0 
0 
0 
0 
0 
0 
0 
9254300 
20084300 
27779850 
8772000 
13313600 
3938320 
0 
0 
8484400 
5221300 
11860750 
25743350 
8575900 
10046600 
0 
0 
0 
12093200 
44396250 
51502500 
17695100 
6992950 
0 
0 
10642900 
18722100 
14999250 
20340700 
6931950 
3180170 
0 
0 
0 
3664065 
16084650 
33524750 
23808250 
3771415 
0 
0 
2799115 
0 
3976440 
0 
3511515 
0 
0 
0 
0 
0 
0 
0 
0 
0 
0 
0 
0 
0 
0 
0 
0 
0 
0 
0 
0 
0 
0 
0 
0 
0 
0 
0 
0 
0 
0 
0 
0 
0 
0 
0 
0 
0 
0 
0 
0 
0 
0 
0 
0 
0 
0 
0 
0 
0 
0 
0 
0 
0 
0 
0 
0 
0 
0 
0 
0 
0 
0 
0 
0 
0 
0 
0 
0 
0 
0 
0 
0 
0 
0 
0 
0 
0 
0 
0 
0 
0 
0 
0 
0 
0 
0 
0 
0 
0 
0 
0 
0 
0 
0 
0 
0 
0 
0 
0 
0 
0 
0 
0 
0 
0 
0 
0 
0 
0 
0 
0 
0 
0 
0 
0 
0 
0 
0 
0 
0 
0 
0 
0 
0 
0 
0 
0 
0 
0 
0 
0 
0 
0 
0 
0 
0 
0 
0 
0 
0 
0 
0 
0 
0 
0 
0 
0 
SCALARS n_group_003_error double 1
LOOKUP_TABLE default
0.425235 
0.358318 
0.350732 
0.386285 
0.420787 
0.547528 
0 
0 
0.428664 
0.306332 
0.301096 
0.275208 
0.326675 
0.701861 
0 
0 
0.351923 
0.299774 
0.229354 
0.249064 
0.398817 
0.602278 
0 
0 
0.356356 
0.330655 
0.244535 
0.261983 
0.307669 
0.62721 
0 
0 
0.53872 
0.422306 
0.297758 
0.337103 
0.376053 
0 
0 
0 
0.999999 
0.875129 
0.631467 
0.660287 
0.999999 
0 
0 
0 
0 
0 
0 
0 
0 
0 
0 
0 
0 
0 
0 
0 
0 
0 
0 
0 
0.177862 
0.212374 
0.215355 
0.196355 
0.195613 
0.348911 
0 
0 
0.179908 
0.187142 
0.187199 
0.179982 
0.186958 
0.252452 
0 
0 
0.211605 
0.166071 
0.181603 
0.17355 
0.196451 
0.305855 
0 
0 
0.16941 
0.157977 
0.161001 
0.186396 
0.192065 
0.372584 
0 
0 
0.177472 
0.187396 
0.186655 
0.195864 
0.192559 
0.280171 
0 
0 
0.345447 
0.318942 
0.262628 
0.271106 
0.339331 
0.449427 
0 
0 
0 
0 
0 
0 
0 
0 
0 
0 
0 
0 
0 
0 
0 
0 
0 
0 
0.187777 
0.127103 
0.135405 
0.12378 
0.158667 
0.254401 
0 
0 
0.137132 
0.104382 
0.0984415 
0.0982656 
0.109584 
0.246158 
0 
0 
0.133676 
0.096557 
0.085028 
0.0892774 
0.107691 
0.209272 
0 
0 
0.1274 
0.0981556 
0.0923922 
0.0943212 
0.124738 
0.207063 
0 
0 
0.169654 
0.12692 
0.107003 
0.115822 
0.141201 
0.276518 
0 
0 
0.385992 
0.288151 
0.223188 
0.207291 
0.261948 
0.393719 
0 
0 
0 
0 
0 
0 
0 
0 
0 
0 
0 
0 
0 
0 
0 
0 
0 
0 
0.198275 
0.149256 
0.140465 
0.156479 
0.179611 
0.268067 
0 
0 
0.168627 
0.137828 
0.141366 
0.147836 
0.159461 
0.233654 
0 
0 
0.140461 
0.134159 
0.141955 
0.151729 
0.158781 
0.265838 
0 
0 
0.14569 
0.16421 
0.133376 
0.139401 
0.14432 
0.250705 
0 
0 
0.190026 
0.141339 
0.14855 
0.135977 
0.18014 
0.429449 
0 
0 
0.27963 
0.273106 
0.27754 
0.214523 
0.362131 
0.574978 
0 
0 
0 
0 
0 
0 
0 
0 
0 
0 
0 
0 
0 
0 
0 
0 
0 
0 
0.478619 
0.349641 
0.343917 
0.346259 
0.299249 
0.599706 
0 
0 
0.355775 
0.258962 
0.238606 
0.314176 
0.270344 
0.436611 
0 
0 
0.261442 
0.237259 
0.238854 
0.241371 
0.326786 
0.58292 
0 
0 
0.332597 
0.307572 
0.222625 
0.237671 
0.28614 
0.515929 
0 
0 
0.357484 
0.384359 
0.266082 
0.301551 
0.368837 
0.514098 
0 
0 
0.549671 
0.475515 
0.403181 
0.479829 
0.851955 
0 
0 
0 
0 
0 
0 
0 
0 
0 
0 
0 
0 
0 
0 
0 
0 
0 
0 
0 
0.764589 
0.592971 
0.483126 
0.643626 
0.668104 
0.999999 
0 
0 
0.70715 
0.597207 
0.488305 
0.40839 
0.536164 
0.594546 
0 
0 
0 
0.544213 
0.431348 
0.379963 
0.402731 
0.793188 
0 
0 
0.584241 
0.48618 
0.528619 
0.617767 
0.722925 
0.837279 
0 
0 
0 
0.808748 
0.58135 
0.371845 
0.438816 
0.999999 
0 
0 
0.84312 
0 
0.609833 
0 
0.904927 
0 
0 
0 
0 
0 
0 
0 
0 
0 
0 
0 
0 
0 
0 
0 
0 
0 
0 
0 
0 
0 
0 
0 
0 
0 
0 
0 
0 
0 
0 
0 
0 
0 
0 
0 
0 
0 
0 
0 
0 
0 
0 
0 
0 
0 
0 
0 
0 
0 
0 
0 
0 
0 
0 
0 
0 
0 
0 
0 
0 
0 
0 
0 
0 
0 
0 
0 
0 
0 
0 
0 
0 
0 
0 
0 
0 
0 
0 
0 
0 
0 
0 
0 
0 
0 
0 
0 
0 
0 
0 
0 
0 
0 
0 
0 
0 
0 
0 
0 
0 
0 
0 
0 
0 
0 
0 
0 
0 
0 
0 
0 
0 
0 
0 
0 
0 
0 
0 
0 
0 
0 
0 
0 
0 
0 
0 
0 
0 
0 
0 
0 
0 
0 
0 
0 
0 
0 
0 
0 
0 
0 
0 
0 
0 
0 
0 
0 
SCALARS n_group_004 double 1
LOOKUP_TABLE default
43837850 
58369000 
32246550 
25748100 
4893985 
6515400 
0 
0 
67100500 
178958000 
111372000 
82420000 
46253100 
0 
0 
0 
60884000 
148491000 
172051000 
107923500 
64659000 
17705350 
0 
0 
64936000 
150722500 
137540500 
89366500 
135496500 
10007750 
0 
0 
45921100 
58422500 
94121000 
70868000 
54148500 
30702150 
0 
0 
5941100 
13732400 
27014350 
39435900 
4170135 
6167800 
0 
0 
0 
0 
0 
0 
0 
0 
0 
0 
0 
0 
0 
0 
0 
0 
0 
0 
123697500 
195157500 
172521000 
260895000 
175955000 
35061900 
0 
0 
251889500 
264918000 
286950000 
256986000 
190616000 
46983750 
0 
0 
204312000 
351469500 
414065500 